/*--------------------------------*- C++ -*----------------------------------*\
| =========                 |                                                 |
| \\      /  F ield         | OpenFOAM: The Open Source CFD Toolbox           |
|  \\    /   O peration     | Version:  2312                                  |
|   \\  /    A nd           | Website:  www.openfoam.com                      |
|    \\/     M anipulation  |                                                 |
\*---------------------------------------------------------------------------*/
FoamFile
{
    version     2.0;
    format      ascii;
    arch        "LSB;label=32;scalar=64";
    class       volScalarField;
    location    "constant";
    object      Dkf;
}
// * * * * * * * * * * * * * * * * * * * * * * * * * * * * * * * * * * * * * //

dimensions      [0 0 0 0 0 0 0];

internalField   nonuniform List<scalar> 
12225
(
0.265411
0.188651
0.0670807
0.0901348
0.170813
0.143057
0.15437
0.155493
0.207722
0.190573
0.267326
0.247601
0.21809
0.226398
0.236355
0.235653
0.222048
0.355695
0.301283
0.22315
0.236654
0.15332
0.137951
0.100215
0.0272199
0.0134549
0.0102079
0.00206618
0.00535678
0.0100076
0.0202817
0.0126484
0.0144082
0.0249067
0.0228989
0.0821617
0.660877
0.157755
0.201727
0.200504
0.104788
0.141892
0.0882734
0.0320969
0.00825002
0.00829072
0.00755298
0.0049606
0.00204497
0.00386742
0.00149792
0.00740714
0.0122599
0.0133334
0.47438
0.685827
0.1811
0.202012
0.142887
0.19864
0.120934
0.0733599
0.0872311
0.0310239
0.0196916
0.0174424
0.0199155
0.0180586
0.0206821
0.00223254
0.0021956
0.0062288
0.338796
0.300534
0.361579
0.455841
0.216429
0.214234
0.357041
0.158024
0.0660115
0.0322402
0.00101086
0.0058357
0.00148922
0.00540089
0.0118479
0.0249339
0.0071853
0.00556203
0.325015
0.304162
0.451632
0.55288
0.587107
0.540984
0.115053
0.253105
0.224095
0.0628102
0.0574313
0.0772197
0.0273877
0.034219
0.0567563
0.0789862
0.14731
0.170347
0.764975
0.0582263
0.369464
0.542765
0.577433
0.40072
0.0913391
0.0428225
0.0400589
0.0141123
0.0103095
0.00602195
0.00818775
0.0237579
0.0227496
0.158535
0.224068
0.325659
0.704389
0.105558
0.336895
0.329306
0.353569
0.408028
0.331978
0.0182425
0.0127882
0.0300911
0.0206797
0.0171557
0.00715248
0.00861994
0.00802585
0.0175568
0.0240233
0.0136875
0.688617
0.7267
0.247095
0.273173
0.354567
0.332755
0.294278
0.0180384
0.0088365
0.0206806
0.042502
0.0306774
0.0291004
0.0134403
0.0177557
0.0174716
0.00470815
0.00931496
0.68795
0.0418341
0.0461116
0.291625
0.314694
0.350349
0.0395832
0.00461267
0.00753574
0.00301983
0.0130403
0.0116736
0.0184368
0.00283079
0.00335039
0.00498059
0.00468797
0.00903997
0.341237
0.0359431
0.034443
0.0690019
0.169343
0.106303
0.0173748
0.000450794
0.00241728
0.0016577
0.00179174
0.00220461
0.00208194
0.00157083
0.00210735
0.0031143
0.00431518
0.00674309
0.718966
0.111333
0.0350016
0.0383174
0.0987855
0.0741509
0.0126487
0.000509891
0.000523256
0.000494155
0.000620419
0.000802008
0.00111898
0.00158886
0.00213548
0.00310408
0.00424229
0.00593739
0.728797
0.190332
0.0273434
0.0220297
0.0320737
0.0218233
0.00971259
0.000655427
0.000596655
0.00056655
0.000623378
0.000840059
0.0011023
0.00149604
0.00192459
0.00282552
0.00389382
0.00547241
0.80874
0.159075
0.0444505
0.0388205
0.0204651
0.0108259
0.01093
0.000432493
0.00364455
0.000601244
0.000690491
0.00262
0.00107099
0.00148149
0.00182111
0.00268294
0.00353276
0.00505336
0.662411
0.220342
0.0812051
0.0259985
0.0171151
0.00882105
0.00984511
0.00583333
0.00618012
0.000567802
0.004295
0.00117352
0.00195071
0.00149477
0.00187377
0.00247142
0.003357
0.00430847
0.696166
0.264476
0.127271
0.0460384
0.0193343
0.00657314
0.000304085
0.0021822
0.000379332
0.000501333
0.00228262
0.00276689
0.00297777
0.00133345
0.00238367
0.00412307
0.00493656
0.00758636
0.771506
0.300337
0.198648
0.114379
0.06785
0.0175455
0.00641349
0.00435006
0.00586793
0.00397298
0.00206781
0.00623524
0.000925136
0.00333938
0.00150829
0.00528347
0.00530875
0.0072197
0.598876
0.353013
0.286736
0.257657
0.185391
0.0278735
0.0141079
0.0110952
0.00187276
0.00393582
0.000812875
0.0135878
0.00290451
0.0111014
0.00331285
0.00379309
0.00236505
0.00366033
0.803354
0.343596
0.237272
0.171928
0.12545
0.0562421
0.044406
0.00190293
0.00298015
0.000403488
0.00155727
0.00184651
0.00186759
0.00502779
0.00449747
0.00365242
0.00723252
0.00918902
0.503207
0.29871
0.159692
0.0956617
0.0166462
0.0146419
0.00752449
0.000373196
0.00237389
0.000400971
0.00244183
0.00141556
0.00156409
0.00169824
0.00192378
0.00144419
0.00171595
0.00683949
0.742094
0.573233
0.141659
0.0537923
0.0200112
0.0104291
0.0136796
0.00698223
0.0102476
0.00386228
0.0027676
0.00109483
0.00129573
0.00190292
0.00625919
0.0188273
0.0093501
0.0273213
0.453824
0.218715
0.120025
0.0291109
0.0265845
0.0138288
0.023019
0.0146459
0.0131166
0.000515601
0.000785994
0.00137533
0.00211258
0.00731641
0.0095634
0.0181897
0.0271894
0.0301092
0.403162
0.148316
0.0285845
0.0250443
0.10767
0.127789
0.173541
0.029566
0.0327383
0.0126962
0.00161562
0.00301593
0.00633317
0.00944898
0.0105771
0.0169227
0.0263203
0.0241908
0.745403
0.737379
0.023268
0.0117345
0.153988
0.289312
0.288988
0.28718
0.252994
0.10717
0.0352453
0.00965388
0.0122408
0.0144059
0.0201675
0.0194777
0.024419
0.0470586
0.811279
0.545902
0.0222015
0.0161932
0.308713
0.321385
0.342052
0.357886
0.329353
0.159414
0.0735481
0.0174127
0.0368618
0.0597365
0.0842897
0.104693
0.11821
0.168583
0.73065
0.661713
0.0748527
0.0296972
0.319288
0.543693
0.566588
0.503586
0.33826
0.27575
0.411622
0.395281
0.29193
0.256282
0.220668
0.22289
0.192465
0.203527
0.863873
0.601339
0.482984
0.0211503
0.505239
0.214845
0.198952
0.126867
0.163378
0.0663521
0.0428474
0.0352284
0.0564483
0.0716416
0.0395089
0.036942
0.0378225
0.0314817
0.505002
0.525532
0.223766
0.166812
0.149269
0.168877
0.177911
0.0677807
0.0882201
0.0698621
0.0438919
0.0211342
0.0234632
0.0312786
0.055102
0.033986
0.0306229
0.016828
0.261332
0.242229
0.219019
0.176662
0.23249
0.100469
0.120062
0.113477
0.0849321
0.0389844
0.0247425
0.00793386
0.00625388
0.00835165
0.0161222
0.00563353
2.33683e-05
2.25026e-05
0.281948
0.23329
0.212163
0.204045
0.0791843
0.0806744
0.137173
0.131792
0.173091
0.125417
0.168296
0.120183
0.145569
0.14692
0.135006
0.130334
0.133078
0.153295
0.386978
0.376534
0.280363
0.403085
0.424627
0.405596
0.444737
0.427041
0.399035
0.361374
0.335289
0.341187
0.375197
0.342183
0.364214
0.389178
0.415864
0.425819
0.400245
0.358968
0.333218
0.356031
0.389484
0.367765
0.358546
0.370242
0.202539
0.194632
0.195331
0.169129
0.198699
0.247882
0.279772
0.274292
0.273468
0.258072
0.276039
0.254608
0.247391
0.235741
0.25292
0.244291
0.27981
0.265506
0.262829
0.252787
0.297544
0.278823
0.277269
0.413487
0.347972
0.381815
0.363083
0.359507
0.181511
0.154191
0.233712
0.239196
0.269437
0.24098
0.219062
0.302968
0.289259
0.29968
0.345275
0.297279
0.29895
0.282195
0.294407
0.300333
0.307847
0.319012
0.369008
0.327984
0.32076
0.333423
0.304452
0.316359
0.271
0.284231
0.258182
0.28112
0.253575
0.272604
0.263931
0.282855
0.265916
0.283983
0.264545
0.276772
0.260087
0.270952
0.26043
0.281027
0.250574
0.260396
0.230616
0.231594
0.2229
0.233452
0.221632
0.235253
0.222364
0.218145
0.216168
0.216078
0.240192
0.255639
0.254109
0.251475
0.272442
0.23849
0.264133
0.258368
0.252528
0.254898
0.255989
0.249059
0.238591
0.249503
0.243159
0.24705
0.233115
0.240835
0.242619
0.252705
0.245002
0.233982
0.216897
0.253471
0.241742
0.239101
0.220372
0.221365
0.232725
0.37058
0.367089
0.358871
0.354704
0.366189
0.359308
0.368273
0.374323
0.380918
0.384361
0.391142
0.392296
0.387249
0.380478
0.393642
0.400311
0.402885
0.321375
0.325673
0.332536
0.339801
0.279742
0.275904
0.256425
0.310145
0.320181
0.317191
0.335415
0.346666
0.335639
0.311665
0.356095
0.349444
0.245833
0.362417
0.257149
0.265615
0.349655
0.293781
0.342832
0.279553
0.359983
0.315145
0.322088
0.330636
0.236097
0.46668
0.418764
0.371953
0.393009
0.372092
0.423037
0.429884
0.534537
0.574108
0.535089
0.428676
0.403171
0.30809
0.276509
0.267843
0.299929
0.277583
0.227843
0.245426
0.250376
0.249548
0.267166
0.284485
0.345919
0.348298
0.351465
0.309421
0.300753
0.294642
0.273849
0.313768
0.305886
0.297338
0.268104
0.270061
0.265313
0.261788
0.264817
0.270689
0.271217
0.268779
0.281089
0.21299
0.20174
0.217343
0.23668
0.225416
0.259203
0.267045
0.279919
0.295935
0.29375
0.290317
0.28081
0.299447
0.311604
0.312831
0.286251
0.329003
0.354072
0.35253
0.350359
0.346189
0.344326
0.347326
0.345748
0.335427
0.3291
0.316259
0.328645
0.338104
0.393683
0.256021
0.199027
0.22014
0.188051
0.210366
0.191994
0.212189
0.193316
0.199863
0.185369
0.191813
0.184353
0.186736
0.183833
0.184957
0.185363
0.179976
0.182244
0.179787
0.178437
0.19181
0.250834
0.245972
0.243572
0.247438
0.251317
0.410851
0.631795
0.729199
0.783615
0.788732
0.750424
0.758463
0.751236
0.751569
0.774183
0.778614
0.784738
0.779007
0.775641
0.771488
0.771039
0.765823
0.77109
0.773703
0.786009
0.781575
0.782289
0.787738
0.785805
0.776516
0.779118
0.790602
0.795402
0.809976
0.808587
0.791724
0.80039
0.797097
0.80035
0.798624
0.745927
0.737298
0.724196
0.620057
0.577495
0.567378
0.579847
0.812042
0.809792
0.788616
0.863267
0.865567
0.583826
0.574677
0.566803
0.595952
0.625628
0.722762
0.721006
0.703626
0.709055
0.755414
0.797533
0.747387
0.75166
0.70947
0.672982
0.547282
0.349883
0.316126
0.331792
0.268637
0.251704
0.238423
0.248674
0.379195
0.403344
0.537682
0.546644
0.563639
0.570315
0.553609
0.571742
0.564493
0.611061
0.524866
0.340962
0.391196
0.386298
0.318688
0.339289
0.564963
0.505091
0.281595
0.302813
0.352117
0.33441
0.329937
0.28913
0.310758
0.288905
0.252524
0.231826
0.239634
0.215469
0.209562
0.328984
0.360922
0.370101
0.342732
0.27599
0.250118
0.301583
0.326007
0.337566
0.326638
0.278646
0.257699
0.263196
0.264834
0.217843
0.220741
0.210159
0.224819
0.276205
0.271457
0.306667
0.343057
0.364205
0.35291
0.377795
0.372109
0.387921
0.39318
0.466676
0.40623
0.297698
0.300957
0.301633
0.299522
0.39013
0.440716
0.457628
0.469114
0.458052
0.465088
0.445429
0.403433
0.408123
0.409613
0.456743
0.443268
0.46048
0.438083
0.456151
0.438511
0.457469
0.477396
0.465684
0.298575
0.259972
0.208419
0.207003
0.1962
0.206824
0.194356
0.198981
0.187615
0.197419
0.193842
0.226394
0.237846
0.24833
0.264606
0.260914
0.272794
0.272972
0.274292
0.278026
0.258074
0.251546
0.281862
0.407855
0.843864
0.701268
0.67982
0.777126
0.766167
0.744998
0.759343
0.808822
0.814093
0.810421
0.804465
0.796953
0.787401
0.780856
0.772877
0.769314
0.763614
0.753834
0.745374
0.750196
0.749844
0.755878
0.755727
0.768349
0.764466
0.772446
0.760012
0.778121
0.763513
0.768279
0.771888
0.77819
0.789528
0.788995
0.797562
0.793201
0.809323
0.796263
0.801654
0.795301
0.798032
0.793198
0.822105
0.768519
0.764424
0.749312
0.743509
0.742056
0.750377
0.745426
0.760895
0.74752
0.74015
0.767604
0.77554
0.809324
0.848064
0.872402
0.843427
0.798425
0.747161
0.591433
0.358266
0.391985
0.318768
0.313735
0.308439
0.289337
0.456814
0.467848
0.568356
0.539997
0.542907
0.541413
0.555186
0.552093
0.55118
0.547249
0.57499
0.575918
0.595033
0.59055
0.585555
0.333596
0.355629
0.385014
0.497784
0.457421
0.290344
0.296515
0.317819
0.301421
0.316922
0.300087
0.288593
0.283536
0.251378
0.229479
0.340946
0.350028
0.358257
0.349925
0.335475
0.345726
0.327737
0.334016
0.344875
0.264013
0.245034
0.252361
0.265461
0.228697
0.215572
0.224312
0.217536
0.262977
0.258326
0.310535
0.327106
0.327517
0.327329
0.343081
0.346082
0.384863
0.366395
0.378194
0.427689
0.411492
0.413032
0.474508
0.517925
0.538216
0.492062
0.50569
0.478153
0.458012
0.48541
0.47624
0.305111
0.30326
0.2954
0.452004
0.728657
0.704567
0.739585
0.673489
0.62729
0.615662
0.615395
0.64773
0.690126
0.668198
0.647481
0.586819
0.517378
0.465325
0.27106
0.235564
0.365851
0.596396
0.593796
0.633643
0.667082
0.649127
0.488386
0.552355
0.535392
0.546932
0.520452
0.533493
0.52038
0.543429
0.53236
0.539429
0.540852
0.553398
0.537545
0.535398
0.642643
0.604721
0.583483
0.590621
0.555709
0.555875
0.521305
0.552086
0.53358
0.561726
0.545536
0.543908
0.522115
0.513174
0.514623
0.523183
0.516556
0.532235
0.853455
0.842132
0.837966
0.839751
0.848406
0.838499
0.846853
0.836087
0.853546
0.831599
0.802844
0.759032
0.760272
0.729964
0.726346
0.719419
0.730222
0.717162
0.72134
0.719919
0.713238
0.704284
0.715926
0.727556
0.718179
0.696226
0.690211
0.684239
0.647838
0.614493
0.620713
0.627124
0.625802
0.659974
0.646741
0.744732
0.74211
0.780027
0.752345
0.755168
0.706201
0.676001
0.634871
0.548277
0.303274
0.267517
0.291945
0.273698
0.317917
0.369192
0.379165
0.387748
0.382155
0.382987
0.34392
0.389954
0.372315
0.382331
0.372
0.395519
0.396036
0.412926
0.418617
0.42592
0.439147
0.455839
0.45628
0.292089
0.383748
0.452845
0.346089
0.341962
0.313854
0.265794
0.209734
0.264887
0.227661
0.255268
0.249722
0.374598
0.373878
0.377216
0.360097
0.370748
0.353082
0.271231
0.307421
0.272414
0.235999
0.288818
0.250883
0.253776
0.27357
0.263713
0.228168
0.235027
0.237133
0.27868
0.308608
0.3355
0.339532
0.382355
0.387785
0.405497
0.380139
0.384144
0.410707
0.414978
0.483603
0.497132
0.579645
0.603756
0.552738
0.5463
0.545585
0.411371
0.320807
0.319221
0.354244
0.704877
0.729472
0.723729
0.60077
0.598375
0.663161
0.641836
0.624978
0.423196
0.385852
0.343474
0.371626
0.433834
0.554759
0.674916
0.661599
0.71091
0.710501
0.689671
0.39079
0.42448
0.464723
0.518054
0.497388
0.53156
0.53389
0.539104
0.544978
0.560458
0.528863
0.548091
0.521597
0.549389
0.523069
0.564116
0.52689
0.560801
0.521847
0.590851
0.526434
0.546608
0.594126
0.687296
0.623862
0.654745
0.565393
0.619646
0.543837
0.61101
0.553228
0.608606
0.576004
0.600742
0.568514
0.589041
0.562944
0.569856
0.546671
0.552841
0.546932
0.555946
0.547336
0.545474
0.555282
0.54879
0.87063
0.839865
0.852184
0.84157
0.840835
0.826861
0.828544
0.817548
0.808998
0.802732
0.798159
0.782176
0.777614
0.760485
0.741893
0.727706
0.730591
0.706554
0.710406
0.69772
0.702372
0.683124
0.658662
0.643076
0.626898
0.622386
0.656922
0.663273
0.689358
0.732285
0.729126
0.773434
0.74589
0.729447
0.637752
0.628246
0.596694
0.523396
0.485167
0.370516
0.311766
0.339007
0.355426
0.382102
0.3755
0.375033
0.370747
0.393698
0.367244
0.386266
0.39781
0.390717
0.387162
0.391901
0.388952
0.398123
0.409553
0.422224
0.419645
0.447683
0.45131
0.473904
0.465434
0.39703
0.413186
0.395101
0.390638
0.316563
0.26893
0.231147
0.237574
0.24893
0.244323
0.405434
0.372212
0.415875
0.351715
0.311407
0.220431
0.210852
0.18796
0.28162
0.405405
0.466221
0.461905
0.422197
0.359
0.275221
0.23961
0.307544
0.284522
0.292457
0.318757
0.356827
0.379492
0.390176
0.388268
0.408441
0.452862
0.485022
0.523853
0.579604
0.600756
0.601915
0.553069
0.541843
0.327084
0.314407
0.310334
0.460579
0.71523
0.702773
0.730591
0.606519
0.609505
0.650526
0.635328
0.427684
0.38803
0.339495
0.378921
0.600006
0.698954
0.734743
0.709101
0.448194
0.504325
0.499331
0.515656
0.513491
0.525557
0.522758
0.526966
0.518667
0.479199
0.511234
0.486898
0.54679
0.499376
0.545126
0.51235
0.536341
0.499654
0.537527
0.503265
0.547853
0.508108
0.5583
0.514008
0.557087
0.513516
0.567384
0.516376
0.603249
0.619256
0.687903
0.636692
0.650408
0.59024
0.638404
0.573715
0.632207
0.587576
0.630067
0.599541
0.622289
0.598891
0.621978
0.592205
0.608817
0.590591
0.58858
0.579058
0.575546
0.579433
0.55908
0.574042
0.56931
0.573485
0.575924
0.565032
0.58635
0.841173
0.815535
0.83503
0.78176
0.815033
0.801342
0.816506
0.784393
0.801733
0.751697
0.749816
0.751649
0.72966
0.745346
0.709197
0.723371
0.682098
0.696287
0.645087
0.664275
0.630275
0.669625
0.632377
0.681444
0.674379
0.740531
0.705338
0.756584
0.659507
0.656915
0.570802
0.585881
0.527969
0.325467
0.327638
0.347166
0.361171
0.398058
0.395796
0.419286
0.42853
0.416365
0.419756
0.41932
0.366811
0.370189
0.354571
0.358974
0.364283
0.373807
0.383332
0.388182
0.39163
0.400948
0.406057
0.418932
0.41947
0.445041
0.457113
0.467982
0.464638
0.316613
0.426856
0.363552
0.277593
0.245493
0.236006
0.25236
0.259932
0.26418
0.356663
0.334867
0.33039
0.43497
0.272325
0.311468
0.291992
0.459012
0.443173
0.510379
0.506427
0.555072
0.55945
0.527159
0.316271
0.314821
0.287001
0.297192
0.399919
0.385655
0.430896
0.473279
0.52809
0.549351
0.587819
0.594046
0.625207
0.61452
0.484371
0.326703
0.316345
0.311102
0.304799
0.352593
0.710536
0.713266
0.735549
0.614533
0.62207
0.642556
0.633362
0.423968
0.383972
0.659153
0.637002
0.641969
0.668259
0.673203
0.536327
0.54084
0.539686
0.564695
0.532331
0.529098
0.579363
0.59169
0.57033
0.582604
0.556602
0.556511
0.526637
0.534488
0.462634
0.522622
0.4727
0.57348
0.510969
0.577508
0.515818
0.578127
0.523527
0.567181
0.545366
0.585837
0.545627
0.60392
0.564774
0.60579
0.569727
0.668742
0.688613
0.596422
0.613948
0.651778
0.623466
0.664502
0.609103
0.670211
0.613243
0.67059
0.63343
0.662183
0.630272
0.675072
0.634803
0.673139
0.634087
0.675253
0.622792
0.681259
0.632817
0.673377
0.6243
0.660309
0.609013
0.625767
0.589901
0.619842
0.590942
0.623768
0.579916
0.641549
0.594989
0.78259
0.7893
0.774174
0.747673
0.758423
0.73293
0.758017
0.716264
0.738405
0.706353
0.733295
0.708529
0.740652
0.702654
0.742292
0.694577
0.730146
0.661937
0.755646
0.691508
0.770363
0.655305
0.720131
0.557104
0.634608
0.52837
0.586407
0.304157
0.329664
0.324311
0.358717
0.353507
0.436674
0.431392
0.447044
0.407189
0.40737
0.38925
0.377265
0.367666
0.356541
0.336438
0.332748
0.335936
0.347083
0.351314
0.358015
0.365546
0.377647
0.384883
0.397399
0.402402
0.420493
0.424094
0.445696
0.457116
0.46354
0.470456
0.345743
0.388992
0.251309
0.231509
0.218278
0.244412
0.263999
0.251653
0.38286
0.334153
0.368732
0.225115
0.221523
0.299476
0.50566
0.493102
0.543215
0.514314
0.574109
0.540778
0.547376
0.554483
0.46486
0.31155
0.321865
0.420996
0.434809
0.428349
0.542395
0.584238
0.588026
0.546961
0.408973
0.403438
0.388215
0.368633
0.356599
0.356568
0.366542
0.554655
0.75274
0.75951
0.701778
0.682531
0.695272
0.711675
0.704735
0.593311
0.574533
0.598277
0.610497
0.633125
0.642937
0.475531
0.527457
0.542169
0.554167
0.549526
0.549014
0.512736
0.551257
0.548795
0.550035
0.496156
0.522998
0.509234
0.525308
0.52395
0.527427
0.515522
0.520863
0.516517
0.517913
0.555762
0.75679
0.641453
0.685008
0.574032
0.618944
0.585407
0.626418
0.608747
0.678779
0.637437
0.76394
0.720325
0.655385
0.633932
0.630054
0.623945
0.678194
0.631041
0.69664
0.62807
0.691568
0.632082
0.673565
0.634865
0.672616
0.629838
0.675923
0.625015
0.682668
0.625149
0.681557
0.640375
0.675029
0.636184
0.67562
0.634778
0.678313
0.632053
0.671194
0.619104
0.666733
0.602676
0.65059
0.589175
0.627871
0.594784
0.628071
0.591663
0.614374
0.598057
0.764341
0.748211
0.762075
0.715317
0.7351
0.710145
0.739635
0.701856
0.744354
0.696291
0.735576
0.688776
0.772623
0.707722
0.791483
0.704062
0.784977
0.62766
0.691577
0.581153
0.653936
0.344077
0.341256
0.358212
0.373666
0.396933
0.364743
0.366935
0.364278
0.341702
0.340698
0.336421
0.337559
0.328058
0.330716
0.343123
0.346783
0.345723
0.325666
0.326376
0.325659
0.326876
0.336341
0.337025
0.346365
0.351416
0.362749
0.370652
0.378103
0.38301
0.398028
0.422473
0.437357
0.439582
0.440162
0.446244
0.630462
0.569271
0.230151
0.22211
0.222901
0.254725
0.268905
0.257524
0.386623
0.309348
0.46474
0.678773
0.663832
0.711609
0.69272
0.642822
0.544938
0.499316
0.56122
0.507174
0.530723
0.490167
0.353838
0.419347
0.460121
0.528288
0.493978
0.49052
0.519361
0.477133
0.468164
0.438242
0.380904
0.36377
0.341106
0.354257
0.425176
0.745642
0.718067
0.697357
0.643666
0.671899
0.731354
0.662659
0.549441
0.557385
0.565601
0.657773
0.656723
0.695292
0.734419
0.565153
0.573586
0.56053
0.573455
0.545744
0.575452
0.584702
0.60548
0.585094
0.606478
0.557528
0.608804
0.547342
0.585946
0.526161
0.532046
0.501238
0.510937
0.476901
0.511127
0.49088
0.537104
0.532424
0.618247
0.555484
0.606555
0.582732
0.631019
0.598411
0.637545
0.588633
0.627975
0.596575
0.603294
0.608532
0.654915
0.607409
0.665259
0.613973
0.666165
0.626161
0.658257
0.616065
0.662325
0.619032
0.674502
0.630609
0.687674
0.630569
0.67993
0.638285
0.681218
0.631698
0.681417
0.640315
0.675086
0.648617
0.680591
0.649182
0.696054
0.6514
0.694896
0.653378
0.674846
0.624796
0.64613
0.608498
0.625818
0.587855
0.615837
0.579981
0.634888
0.594288
0.649187
0.601232
0.772764
0.735386
0.774228
0.724492
0.760496
0.73356
0.810627
0.743102
0.823654
0.710083
0.789069
0.635619
0.759187
0.579343
0.353115
0.336706
0.333811
0.327172
0.328579
0.326768
0.322266
0.312839
0.312907
0.305947
0.314011
0.302057
0.308081
0.306817
0.316963
0.310676
0.313389
0.307945
0.294244
0.294607
0.302931
0.303105
0.306144
0.310078
0.310313
0.313744
0.317661
0.32293
0.337362
0.337581
0.340131
0.346471
0.349231
0.354812
0.366342
0.385885
0.400352
0.402419
0.401875
0.408878
0.57162
0.660272
0.245029
0.224789
0.248902
0.249203
0.262176
0.249517
0.473917
0.722392
0.714891
0.746206
0.72308
0.77644
0.742237
0.799951
0.751033
0.785133
0.724443
0.718601
0.687544
0.615687
0.574371
0.57437
0.566723
0.471944
0.404949
0.389419
0.399611
0.388603
0.364203
0.345045
0.350056
0.4139
0.761179
0.791159
0.717727
0.707118
0.698569
0.7373
0.672002
0.574076
0.543606
0.552816
0.588447
0.622401
0.614351
0.712443
0.556584
0.537948
0.583557
0.56313
0.590182
0.570437
0.598618
0.563214
0.605929
0.558955
0.62268
0.573885
0.629918
0.608696
0.634468
0.609289
0.590489
0.591396
0.598024
0.597424
0.576284
0.530306
0.572204
0.561129
0.603125
0.62979
0.680629
0.63941
0.662224
0.633785
0.654572
0.638181
0.636563
0.627015
0.651756
0.607934
0.647977
0.60934
0.66469
0.622919
0.657746
0.637237
0.668956
0.63549
0.674938
0.641471
0.68854
0.641888
0.689367
0.64175
0.676958
0.633444
0.676171
0.637089
0.667643
0.632338
0.680993
0.640731
0.682201
0.645654
0.693382
0.657354
0.706154
0.663853
0.706402
0.656059
0.698091
0.636842
0.695869
0.630698
0.667249
0.618281
0.660781
0.604621
0.658891
0.6144
0.703419
0.640324
0.715649
0.645265
0.853254
0.729474
0.84183
0.677501
0.792124
0.639804
0.412425
0.333023
0.327405
0.304333
0.298693
0.291815
0.290429
0.283495
0.276317
0.270645
0.275809
0.275638
0.275082
0.273199
0.278527
0.276152
0.278076
0.274544
0.282536
0.281005
0.28346
0.279998
0.27775
0.282352
0.284533
0.286929
0.293734
0.2923
0.295379
0.295378
0.301454
0.299189
0.304903
0.30681
0.309575
0.31071
0.314525
0.317442
0.318845
0.321072
0.328347
0.346237
0.362263
0.382898
0.429835
0.394355
0.492717
0.627221
0.325519
0.351315
0.293785
0.304833
0.337311
0.265978
0.717872
0.751692
0.726066
0.761045
0.737676
0.74228
0.713394
0.728061
0.717606
0.720991
0.660438
0.669251
0.606613
0.565926
0.598206
0.513311
0.439571
0.400639
0.389922
0.376138
0.364875
0.360881
0.374691
0.445139
0.765097
0.762812
0.768029
0.758498
0.790944
0.707352
0.696807
0.565
0.545046
0.554596
0.58455
0.594338
0.614498
0.70322
0.559456
0.539184
0.578659
0.557648
0.602695
0.578204
0.625244
0.588065
0.619276
0.59416
0.618253
0.581406
0.63798
0.589282
0.657007
0.60933
0.644913
0.603992
0.632024
0.602588
0.631183
0.611079
0.628436
0.619669
0.65207
0.630992
0.674528
0.681147
0.712172
0.669018
0.69735
0.652994
0.693686
0.647833
0.687314
0.623999
0.653281
0.630076
0.641426
0.622762
0.654089
0.627202
0.679736
0.652359
0.691341
0.656132
0.691571
0.6635
0.70014
0.665466
0.697897
0.657688
0.708369
0.660245
0.706162
0.653227
0.710606
0.6408
0.711397
0.642467
0.737937
0.658976
0.744689
0.659104
0.732694
0.672486
0.742286
0.670503
0.752858
0.679713
0.750231
0.672248
0.733393
0.682641
0.727674
0.668157
0.723892
0.634597
0.697526
0.594922
0.671979
0.445449
0.384759
0.367511
0.499336
0.326763
0.360025
0.322507
0.32451
0.306741
0.302484
0.28603
0.269501
0.254014
0.243703
0.246254
0.239413
0.241415
0.237191
0.241455
0.244673
0.249108
0.254322
0.261262
0.266474
0.27269
0.270805
0.270741
0.276522
0.274731
0.273886
0.272973
0.275679
0.274497
0.27699
0.27666
0.280708
0.283313
0.287323
0.290785
0.295431
0.29435
0.29826
0.298047
0.292114
0.289307
0.290959
0.289536
0.303291
0.324246
0.36099
0.380093
0.408276
0.389394
0.435929
0.436286
0.343595
0.288519
0.334179
0.309478
0.227788
0.474815
0.514401
0.526258
0.572168
0.642076
0.662901
0.653843
0.659423
0.667163
0.690409
0.60189
0.618054
0.593506
0.632833
0.522434
0.468862
0.43083
0.468937
0.446196
0.396097
0.407805
0.423437
0.465061
0.72914
0.761657
0.770413
0.756007
0.794856
0.699291
0.693903
0.563459
0.552367
0.561607
0.561493
0.589291
0.604306
0.711294
0.55487
0.562872
0.598246
0.582806
0.604117
0.581086
0.606073
0.57783
0.589591
0.595652
0.58938
0.583454
0.624248
0.59648
0.647212
0.616041
0.656664
0.610112
0.637368
0.591298
0.633048
0.598287
0.627875
0.609511
0.644381
0.611979
0.705208
0.650163
0.713579
0.682955
0.684412
0.654633
0.685954
0.663409
0.685907
0.647489
0.691385
0.646367
0.6807
0.647962
0.699448
0.670623
0.697661
0.674881
0.707595
0.706771
0.737594
0.7114
0.742646
0.70126
0.767473
0.686951
0.777926
0.678996
0.799624
0.684797
0.800972
0.682204
0.796301
0.679625
0.787906
0.691864
0.796925
0.721202
0.813802
0.732124
0.814318
0.733538
0.810976
0.712688
0.768939
0.654931
0.714394
0.64332
0.463556
0.428264
0.372998
0.408214
0.365462
0.37567
0.340631
0.313978
0.290656
0.26947
0.268826
0.248466
0.247159
0.216366
0.391802
0.220509
0.214968
0.217758
0.216861
0.216588
0.216457
0.215511
0.212909
0.210531
0.207685
0.208421
0.214356
0.214538
0.21968
0.223907
0.231147
0.235453
0.240379
0.246306
0.251178
0.254183
0.254482
0.256788
0.254143
0.254035
0.252178
0.251169
0.252869
0.249061
0.252211
0.255782
0.256741
0.264561
0.269403
0.274355
0.275368
0.275045
0.280279
0.280919
0.283234
0.276126
0.306636
0.3087
0.360836
0.377768
0.392669
0.382106
0.393665
0.370994
0.320304
0.312464
0.216934
0.225845
0.284701
0.324532
0.34867
0.47103
0.485493
0.577764
0.594584
0.578724
0.608485
0.573265
0.610237
0.607033
0.524467
0.512375
0.413485
0.446225
0.44961
0.440813
0.505626
0.452388
0.45107
0.509284
0.749432
0.766207
0.764273
0.761207
0.809094
0.70395
0.691754
0.584215
0.56517
0.551464
0.565385
0.593876
0.607997
0.655226
0.57518
0.559564
0.562238
0.574869
0.589352
0.597733
0.605928
0.598947
0.628085
0.612737
0.63223
0.610461
0.634888
0.615115
0.639038
0.619927
0.659858
0.631522
0.668851
0.618335
0.642482
0.614372
0.640221
0.624725
0.635389
0.59659
0.625547
0.580896
0.689839
0.64519
0.747452
0.678296
0.776409
0.730829
0.808228
0.758875
0.806832
0.748855
0.801205
0.732434
0.796013
0.732241
0.813017
0.732252
0.817159
0.76766
0.824522
0.63206
0.778966
0.788408
0.827659
0.711767
0.824636
0.689109
0.809972
0.691667
0.815911
0.704211
0.771879
0.702335
0.697748
0.626861
0.648217
0.624011
0.608942
0.494213
0.469487
0.454732
0.435123
0.432501
0.394819
0.398627
0.35554
0.329353
0.294561
0.304665
0.27916
0.289087
0.256585
0.27109
0.234751
0.220854
0.204158
0.188397
0.171006
0.161959
0.168311
0.170985
0.17537
0.176089
0.17939
0.179808
0.225829
0.187466
0.186465
0.186478
0.186129
0.186979
0.187642
0.189668
0.18825
0.188084
0.193139
0.197532
0.199726
0.205048
0.209414
0.215786
0.223201
0.230834
0.234017
0.234437
0.237004
0.238324
0.238918
0.239973
0.237823
0.240808
0.236373
0.234719
0.238687
0.238185
0.242115
0.246474
0.248202
0.249943
0.25354
0.251193
0.252335
0.252195
0.26604
0.261145
0.300129
0.296106
0.389746
0.411211
0.432179
0.4079
0.46844
0.346595
0.273951
0.222545
0.200785
0.206397
0.384972
0.40761
0.402274
0.387077
0.398123
0.362342
0.337348
0.333926
0.393543
0.39301
0.403403
0.401019
0.413592
0.411788
0.444718
0.460997
0.462288
0.459908
0.481791
0.506621
0.733276
0.755854
0.730779
0.714793
0.743534
0.688235
0.665765
0.59812
0.580616
0.57614
0.571969
0.59406
0.619089
0.648619
0.675208
0.708051
0.581721
0.583089
0.598718
0.607861
0.623844
0.615818
0.642377
0.621677
0.653032
0.629332
0.66497
0.634224
0.656456
0.638402
0.665805
0.644382
0.682404
0.674615
0.705369
0.680972
0.733749
0.667636
0.719619
0.657903
0.707853
0.646177
0.700734
0.646152
0.591933
0.626942
0.747623
0.669479
0.785512
0.749765
0.828674
0.791119
0.828795
0.80017
0.83995
0.811722
0.822555
0.847217
0.880492
0.731241
0.86876
1.09493
0.86906
0.533885
0.726249
0.681993
0.589061
0.540825
0.61297
0.478879
0.456933
0.363516
0.408001
0.360716
0.39158
0.340395
0.359152
0.320492
0.310709
0.281689
0.286317
0.258748
0.262148
0.235118
0.247353
0.223237
0.22184
0.199677
0.187288
0.184023
0.181784
0.176806
0.164286
0.169635
0.156409
0.153275
0.151329
0.14321
0.141764
0.14107
0.147998
0.144094
0.146461
0.150458
0.151729
0.153889
0.156787
0.161085
0.167424
0.163197
0.170231
0.169273
0.169631
0.17163
0.169227
0.17044
0.171909
0.17437
0.178076
0.18163
0.185889
0.190709
0.19591
0.20109
0.207234
0.211484
0.215471
0.219201
0.218709
0.219974
0.222703
0.221994
0.220114
0.222988
0.220026
0.228073
0.225619
0.229828
0.230859
0.231869
0.235199
0.232883
0.23678
0.23701
0.235633
0.237207
0.247838
0.249462
0.319374
0.323718
0.373538
0.423382
0.439083
0.418966
0.474969
0.280587
0.2479
0.169726
0.161878
0.208391
0.378931
0.370774
0.386753
0.357219
0.390839
0.366611
0.41443
0.424665
0.432947
0.417814
0.42395
0.45622
0.484145
0.449096
0.415543
0.456309
0.476668
0.509914
0.72759
0.712746
0.690217
0.708966
0.704272
0.670235
0.666092
0.624753
0.595178
0.592943
0.578437
0.595727
0.591319
0.626038
0.631489
0.648002
0.6802
0.588491
0.59328
0.596174
0.615702
0.624375
0.634752
0.646021
0.658662
0.688789
0.672621
0.698873
0.68207
0.702162
0.697607
0.711288
0.744312
0.762894
0.767853
0.739652
0.762975
0.745168
0.769718
0.734075
0.768973
0.712358
0.709097
0.651101
0.54677
0.52013
0.498073
0.474006
0.488361
0.471905
0.478424
0.45756
0.458224
0.445747
0.462749
0.442797
0.461434
0.436545
0.459103
0.439728
0.453761
0.427186
0.433451
0.544104
0.502186
0.308931
0.346744
0.296518
0.33959
0.292739
0.320157
0.289603
0.303219
0.284528
0.298843
0.263561
0.255489
0.249457
0.24176
0.244543
0.22838
0.218899
0.21871
0.185074
0.169051
0.170262
0.158238
0.155368
0.152612
0.151999
0.151242
0.150161
0.149355
0.144599
0.147594
0.140859
0.138741
0.132189
0.141813
0.128588
0.126633
0.125139
0.125529
0.126781
0.129245
0.132962
0.136109
0.137881
0.137581
0.140343
0.14237
0.144219
0.148256
0.149157
0.206061
0.163929
0.157114
0.161143
0.162452
0.167165
0.169611
0.172936
0.176858
0.180148
0.18584
0.189393
0.194568
0.198326
0.200122
0.201081