/*--------------------------------*- C++ -*----------------------------------*\
| =========                 |                                                 |
| \\      /  F ield         | OpenFOAM: The Open Source CFD Toolbox           |
|  \\    /   O peration     | Version:  2312                                  |
|   \\  /    A nd           | Website:  www.openfoam.com                      |
|    \\/     M anipulation  |                                                 |
\*---------------------------------------------------------------------------*/
FoamFile
{
    version     2.0;
    format      ascii;
    arch        "LSB;label=32;scalar=64";
    class       volScalarField;
    location    "0.2";
    object      Dw;
}
// * * * * * * * * * * * * * * * * * * * * * * * * * * * * * * * * * * * * * //

dimensions      [0 0 -2 0 0 0 0];

internalField   nonuniform List<scalar> 
12225
(
1.08879e+08
1.75943e+08
6.35942e+08
6.24811e+08
5.00507e+08
3.65088e+08
2.98627e+08
2.67503e+08
2.53931e+08
2.48555e+08
2.45902e+08
2.44486e+08
2.42961e+08
2.4161e+08
2.41102e+08
2.39554e+08
2.42197e+08
2.3796e+08
513397
7.13886e+06
9.05615e+07
1.36657e+08
1.22061e+08
1.03014e+08
8.72671e+07
7.66339e+07
6.91241e+07
6.37312e+07
5.97964e+07
5.67256e+07
5.43569e+07
5.24137e+07
5.08017e+07
4.95927e+07
4.82079e+07
4.78533e+07
26141.9
193444
3.55003e+06
1.80427e+07
2.77108e+07
3.07744e+07
3.04479e+07
2.94415e+07
2.76617e+07
2.55824e+07
2.37222e+07
2.24335e+07
2.13952e+07
2.05982e+07
1.9835e+07
1.93278e+07
1.86752e+07
1.83483e+07
15641.7
27589.4
162030
973380
2.65112e+06
4.18758e+06
5.41951e+06
6.41599e+06
7.18208e+06
7.74185e+06
8.10445e+06
8.37182e+06
8.51313e+06
8.61277e+06
8.64779e+06
8.69537e+06
8.70118e+06
8.78224e+06
14684
16201.7
25615.5
60902.4
196493
388042
589155
818787
1.03095e+06
1.27297e+06
1.46187e+06
1.68001e+06
1.81576e+06
1.97444e+06
2.05349e+06
2.17154e+06
2.22816e+06
2.36994e+06
14645.1
14866.9
15957.2
19837.5
31149
50961.8
72428.9
100431
126605
159295
186383
219342
243961
279833
301862
336002
354044
394125
14650.8
14683.3
14792.9
15349.9
16915.9
20310.8
24203.4
29703.2
34619.8
40812.8
46085
52565.4
57707.7
64564.8
68830.3
74294.1
76844.7
82698.7
14506.1
14451.4
14492.2
14635.6
14920.2
15540.8
16427.2
17906.4
19173.1
20804.7
22192.5
23973.7
25526
27523.5
28939.2
30460.3
31112.8
32458.4
14523.4
14493.9
14527.5
14611.6
14664.5
14747.6
14896.5
15233.2
15510.7
15913.5
16248.7
16743.7
17227.1
17908.6
18455.7
19030
19272.8
19736.5
14573.9
14522.1
14540.1
14571.7
14580.7
14590.6
14593.2
14603.7
14602.6
14596
14604.6
14641.4
14719.8
14899.3
15097.8
15308
15397.7
15545
14599.1
14620.1
14541.4
14436.4
14421
14437.7
14442.8
14428.6
14383.2
14266
14130.3
14036.5
14005.7
14009.9
14035
14072.9
14078.9
14095.6
14676.2
14606
14463.1
14307.5
14284
14294.9
14301.7
14290.6
14247.6
14131.4
13991.5
13883.7
13818.6
13789.7
13775
13759.1
13718.7
13663.2
14668.9
14675.4
14495.7
14278.5
14205.6
14178
14159.8
14133.6
14080.1
13989.2
13888.5
13805.6
13753.3
13727.9
13706.8
13677
13609.1
13513.7
14567
14519.9
14377.8
14282.2
14191.3
14113.1
14061.6
14016
13949.8
13861.8
13776.3
13714.9
13680.7
13663.1
13645.9
13615.4
13545.2
13433.8
14617.7
14603.5
14566.8
14470.6
14256.8
14076.1
13979.1
13937.9
13903.2
13829.3
13719.7
13634
13582.4
13553.5
13518.2
13463.3
13377.5
13276.7
14542.3
14466.2
14365.5
14315.5
14257
14120.6
13964.2
13876
13813.7
13743.1
13659.2
13584.1
13518.6
13457
13386.7
13303.8
13213.4
13122.3
14559.7
14491.8
14515.1
14531.4
14487.3
14285.4
14011.7
13823.3
13711.4
13651.7
13616.5
13586.9
13552.2
13503.4
13440.3
13363.4
13285.8
13205.4
14514.5
14409.6
14373.6
14360.9
14324.7
14213.7
14029.8
13861.4
13723.7
13616.3
13533.7
13470.9
13434.3
13409.1
13394.3
13371.2
13339.4
13300.7
14482.2
14427.9
14325.3
14210.3
14163.9
14137.9
14074.7
13914.4
13762.5
13640.1
13525
13404.3
13282.6
13173.9
13091.4
13040.2
13019.7
13014.8
14507.8
14406.3
14270.8
14172.8
14112.5
14052
13986.8
13917.1
13841.6
13758.8
13667.6
13565.6
13452.3
13329.8
13205.8
13088
12990.8
12921.4
14510.3
14406.8
14278.2
14183.6
14045
13929.4
13895.8
13896.6
13903.6
13898.8
13868
13763.8
13621.2
13485.4
13352.9
13227.2
13118.6
13035.1
14517
14462.4
14371
14226.1
14036.4
13932.6
13920
13934.7
13989.6
14016.1
14014
13986.8
13893.2
13744.1
13593
13449.5
13330.7
13242.6
14576.4
14499.4
14484.5
14439.1
14223.6
14049.5
14025.6
14045.1
14148
14322.6
14410
14422.8
14402.1
14281.4
14146
14083.9
14077.5
14077.1
14524.8
14460.2
14475.9
14457.7
14298.6
14187.7
14207.8
14313.3
14596.9
15214.4
15919.8
16339.5
16706.2
16893.4
17212.8
17511.2
18068.4
18517.7
14579.4
14517.3
14537
14670.5
14871.1
15199.4
15847.4
17111.7
19899.6
23801.7
28189.3
31070.2
33915.6
35814.4
38758.2
41348.4
45378.3
48689.1
14568.1
14666.1
14961.9
15787.2
17779
22474.1
32630.3
52280.6
89206.6
128873
169742
197214
223429
242976
272451
300108
340389
375263
14722.3
16270.7
19852.2
28764.6
57757.9
173074
469625
881408
1.33303e+06
1.73098e+06
2.05052e+06
2.25555e+06
2.4147e+06
2.5291e+06
2.67748e+06
2.81331e+06
2.99056e+06
3.12775e+06
18034.6
41607.1
96402.8
319630
1.36689e+06
5.32859e+06
9.7139e+06
1.27717e+07
1.4481e+07
1.49049e+07
1.47872e+07
1.44917e+07
1.4047e+07
1.3642e+07
1.32864e+07
1.29312e+07
1.25858e+07
1.21794e+07
165221
1.51678e+06
4.54804e+06
1.10741e+07
4.26272e+07
7.58757e+07
7.08891e+07
6.61282e+07
5.81745e+07
5.12511e+07
4.58416e+07
4.18775e+07
3.90386e+07
3.69818e+07
3.54435e+07
3.41897e+07
3.31695e+07
3.21796e+07
4.15034e+07
6.03764e+07
8.59541e+07
1.38332e+08
3.35105e+08
3.60494e+08
3.20107e+08
2.42747e+08
1.9127e+08
1.62049e+08
1.47018e+08
1.39505e+08
1.35707e+08
1.33726e+08
1.32361e+08
1.31347e+08
1.30257e+08
1.29363e+08
9.85544e+06
474125
475000
476040
477450
479343
481598
484079
486659
489237
491746
494131
496366
498437
500335
502062
503629
505046
506324
507499
508553
509552
510547
511528
512568
513666
514868
516245
517858
519762
522002
524617
527632
531048
534838
538961
543361
547983
552781
557736
562849
568159
573714
579595
585857
592466
599105
605083
609529
611315
612323
613571
615462
618356
622312
627194
636152
660279
720795
812139
924198
1.05132e+06
1.18989e+06
1.33686e+06
1.48992e+06
1.64722e+06
1.80728e+06
1.96897e+06
2.1314e+06
2.29385e+06
2.45576e+06
2.61663e+06
2.77604e+06
2.93363e+06
3.08894e+06
3.24189e+06
3.39237e+06
3.54033e+06
3.68573e+06
3.82857e+06
3.96885e+06
4.1066e+06
4.24181e+06
4.37451e+06
4.50469e+06
4.63233e+06
4.75744e+06
4.87998e+06
4.99987e+06
5.11702e+06
5.23133e+06
5.34267e+06
5.45094e+06
5.55599e+06
5.65769e+06
5.75593e+06
5.85056e+06
5.94149e+06
6.02862e+06
6.11183e+06
6.19104e+06
6.26617e+06
6.33714e+06
6.40391e+06
6.46642e+06
6.52452e+06
6.57802e+06
6.62681e+06
6.67074e+06
6.70963e+06
6.74341e+06
6.77058e+06
6.79192e+06
6.80975e+06
6.82011e+06
6.82452e+06
6.82244e+06
6.81374e+06
6.79822e+06
6.77575e+06
6.74626e+06
6.70972e+06
6.66621e+06
6.61585e+06
6.55888e+06
6.49563e+06
6.42649e+06
6.352e+06
6.27264e+06
6.18903e+06
6.10178e+06
6.01161e+06
5.91928e+06
5.82537e+06
5.7305e+06
5.63525e+06
5.54011e+06
5.44556e+06
5.35199e+06
5.25966e+06
5.16881e+06
5.07954e+06
4.99193e+06
4.90594e+06
4.82152e+06
4.73855e+06
4.6569e+06
4.5764e+06
4.49691e+06
4.41827e+06
4.34035e+06
4.26306e+06
4.18635e+06
4.1102e+06
4.03464e+06
3.95975e+06
3.88565e+06
3.8125e+06
3.74046e+06
3.66974e+06
3.60055e+06
3.53306e+06
3.46746e+06
3.4039e+06
3.34249e+06
3.28329e+06
3.22633e+06
3.17159e+06
3.11893e+06
3.06831e+06
3.02161e+06
3.00074e+06
3.03051e+06
3.07572e+06
3.12096e+06
3.1644e+06
3.20667e+06
3.23643e+06
3.27323e+06
3.14543e+06
9.8555e+06
316333
64043.5
35554.8
26816.4
21867.1
18420.7
16066.6
14525.9
13575.8
13044.9
12866
12910
13108.2
13494.3
13979.6
14545.8
15172.9
15837
16517.4
17191.3
17837
18477.9
19130.6
19750.4
20278.6
20706.5
21078.7
21471.4
21972.6
22627.1
23462
24504.7
25780
27306.4
29097.9
31172.6
33556.6
36289.1
39429.8
43066
47323.8
52379.9
58471.6
65893.5
74992.5
86126.5
100398
119349
143519
172370
203888
235077
262800
284639
299684
309447
316440
323725
331967
340245
348354
356163
363675
370903
377868
384621
391207
397654
403988
410217
416359
422418
428402
434291
440106
445857
451545
457170
462729
468214
473614
478916
484103
489158
494064
498807
503374
507741
511896
515822
519510
522950
526137
529069
531745
534165
536330
538245
539910
541330
542510
543449
544131
544524
544642
544528
544163
543502
542556
541494
540536
539512
538158
536448
534413
532050
529343
526308
522962
519325
515421
511280
506930
502405
497740
492968
488129
483245
478350
473470
468629
463850
459147
454528
449996
445549
441186
436901
432684
428522
424402
420311
416235
412163
408085
403994
399886
395760
391619
387469
383318
379179
375066
370995
366983
363047
359203
355465
351845
348353
344992
341766
338670
335700
332846
330098
327444
324876
322398
320153
319501
321364
324534
327964
331575
335393
339329
344417
351134
9.85552e+06
390542
88514.7
41116.3
23847
15111.9
10349.5
7597.42
5946.59
4924.83
4283.96
3893.74
3671.89
3570.18
3568.3
3611.21
3717.95
3879.87
4083.13
4322.91
4594.94
4895.98
5227.71
5592.42
5988.21
6413.23
6870.44
7370.51
7932.51
8581.67
9345.76
10255.5
11347.8
12665.8
14258.9
16190.7
18544.6
21424
24945.4
29241.1
34449.2
40695.1
48071.2
56612.3
66210
76625.7
87610.6
99151.1
111196
122035
129193
134877
138757
141210
142400
142824
142815
141857
140713
139416
138168
137058
136135
135419
134935
134667
134548
134567
134787
135137
135609
136188
136860
137615
138439
139325
140265
141250
142273
143325
144400
145490
146588
147686
148779
149859
150923
151964
152978
153961
154909
155820
156690
157519
158305
159046
159742
160393
160998
161556
162066
162528
162947
163330
163694
164015
164279
164482
164625
164713
164763
164781
164765
164673
164517
164292
164000
163642
163224
162749
162223
161651
161039
160394
159722
159031
158326
157613
156897
156182
155470
154765
154071
153385
152708
152036
151368
150699
150028
149349
148658
147953
147229
146483
145713
144918
144097
143251
142382
141493
140587
139668
138742
137815
136891
135976
135075
134193
133333
132499
131692
130911
130158
129429
128721
128032
127359
126700
126054
125424
124845
124550
124701
125196
125835
126601
127482
128620
130197
134352
9.85579e+06
493818
108085
43283.9
21606.1
12340.5
7890.81
5547.76
4229.46
3455.26
2988.33
2700.82
2528.89
2439.93
2414.91
2432.96
2492.28
2597.06
2739.51
2919.42
3138.05
3398.65
3705.25
4061.65
4472.53
4944.69
5488.19
6117.81
6854.67
7726.64
8767.1
10012.9
11496.7
13259.5
15373.6
17919.6
21003
24747.4
29199.9
34374.5
40202.2
46475.6
52875.6
59357.4
65825.4
72216.1
77372.7
80243.1
81573.4
82130.1
82605.3
82743.8
82520.8
81952.8
81219.9
80354
79381.5
78303.8
77248.5
76240.5
75341.8
74575.7
73953.1
73471.7
73124.1
72928.8
72838.6
72815.8
72915.7
73095
73348.1
73665.2
74038.8
74462.4
74930.4
75437
75976.8
76544.6
77135.7
77745.7
78370.1
79005.1
79646.7
80291.6
80936.5
81578.6
82215.2
82843.8
83462.6
84069.8
84663.8
85243.3
85807.3
86354.8
86885
87397.2
87890.7
88365.2
88820.3
89256.1
89673.1
90074
90457.8
90822.8
91169.9
91495.4
91795.6
92069.2
92316.5
92538.8
92737.4
92912.4
93061.6
93181.3
93270.4
93329
93358.4
93360.1
93335.2
93285.3
93212.4
93118.5
93005.9
92876.5
92732.7
92576.7
92410.2
92235.3
92052.6
91863.1
91667.2
91465.8
91260
91048.5
90830.2
90604.3
90369.3
90124
89867.2
89597.2
89312.8
89012.6
88695.8
88361.7
88009.8
87640
87252.6
86848.5
86429
85995.5
85550
85094.8
84632.3
84165
83695.5
83226.3
82759.6
82297.5
81841.6
81393.2
80953
80521.3
80097.8
79682.1
79273
78869.6
78471.3
78077.8
77690.1
77310
76952.1
76681.2
76557.1
76568.9
76660.8
76841.8
77099.7
77525.5
78243.3
80297.9
9.85745e+06
563727
109134
35453.4
15581.7
8649.54
5680.08
4193.97
3363.4
2864.63
2556.97
2367.86
2258.83
2207.9
2205.71
2240.71
2319.94
2440.67
2603.25
2811
3067.98
3378.77
3748.08
4182.57
4691.56
5286.8
5983.61
6802.52
7772.01
8929.55
10314.3
11974.3
13968.3
16351.9
19157.4
22399.6
26045.6
30000.3
34144.5
38280.4
42393.7
46457.3
50535.5
53822
55566.9
56243.6
56399.2
56395.1
56192.3
55858.5
55480.9
55008.2
54472.5
53895.8
53310.8
52723
52146.3
51596.9
51102.8
50675.7
50328.5
50067.5
49901.6
49821.8
49799.5
49856.7
49981.3
50163.7
50404.4
50692.6
51024.2
51394.2
51798.3
52232.5
52693.3
53176.9
53679.9
54199
54731.4
55274
55824.2
56379.4
56937.3
57495.8
58053
58607.3
59157.2
59701.4
60238.8
60768.5
61289.8
61801.8
62304.1
62795.9
63276.7
63745.9
64203
64647.5
65078.9
65497.6
65904.5
66298.6
66679.1
67045.1
67396.3
67731.3
68048.7
68347.8
68628.2
68889.9
69132.8
69356.7
69560.8
69744.5
69907.4
70049.9
70172.7
70276.4
70361.7
70429.3
70480
70514.7
70534.3
70538.5
70529.8
70507.7
70472.5
70426
70367.3
70296.3
70213
70117.8
70010.9
69891.6
69759.5
69614.2
69455.4
69282.7
69096
68895.1
68679.7
68450.1
68206.2
67948.7
67677.6
67393.3
67096.2
66787.2
66467
66136.7
65797.3
65450
65096
64736.5
64372.8
64006
63637.4
63267.8
62898.4
62529.7
62162.5
61797
61433.8
61073
60714.5
60358.5
60005.5
59656.3
59312.1
58976.4
58655.2
58372.6
58154.8
58006.3
57912
57879.4
57904.5
58041.5
58380
59407.3
9.86223e+06
571201
89125.6
25884.9
11556.5
6759.89
4679.68
3620.04
3021.65
2662.35
2439.74
2309.52
2248.13
2242.06
2280.43
2363.45
2489.34
2659.53
2877.17
3147.01
3475.93
3872.72
4348.46
4915.54
5588.11
6383.28
7321.48
8426.5
9724.22
11241.3
13009.1
15050.8
17374.2
19960.9
22757.2
25670.3
28570.8
31436.8
34260.7
37090.7
39467.4
41015.3
41701.1
41935.7
41967.1
41880.7
41653
41395.2
41097.7
40787.6
40472.4
40148.3
39827.7
39519
39231.3
38969.3
38740.5
38554.4
38417.4
38346.1
38322.2
38350.6
38442.5
38585.8
38777
39017.3
39300.7
39623.8
39983.5
40375.6
40797.1
41244.8
41715.8
42207.2
42716.4
43240.7
43777.6
44324.7
44879.7
45440.5
46005
46571.3
47137.8
47703
48265.5
48824.2
49378.2
49926.7
50469.1
51004.8
51533.4
52054.3
52567.2
53071.6
53567.2
54053.4
54529.6
54994.9
55449.4
55893.5
56326.3
56747
57154.7
57548.7
57928.2
58292.4
58640.4
58971.8
59286.1
59582.9
59862
60123.2
60366.5
60591.8
60799.1
60988.7
61161.1
61316.8
61456.1
61579.3
61686.6
61778.3
61854.5
61915.2
61960.4
61990.2
62001.9
61999.8
61981.2
61945.1
61891.4
61820.1
61731.4
61624.7
61500.1
61357.9
61198.3
61021.8
60829
60620.7
60397.6
60160.6
59910.5
59648.7
59376.4
59093.6
58801.3
58500
58190.6
57873.6
57549.8
57219.5
56883.2
56541.4
56194.3
55842.4
55486
55125.6
54761.5
54394.1
54024.1
53652
53278.6
52904.5
52530.6
52157.8
51787.4
51420.8
51060
50707.5
50367.5
50051
49771.3
49534.7
49338.1
49187.3
49082.8
49071
49183.7
49661.5
9.87057e+06
505731
68002.8
19890
9405.6
5829.12
4236.36
3406.7
2928.56
2646.57
2489.2
2416.71
2408.01
2452.3
2544.72
2684.39
2872.83
3113.74
3412.64
3776.76
4215.13
4738.51
5359.29
6091.23
6949.17
7948.78
9105.66
10433.8
11942.9
13635.1
15500.5
17511.5
19618.8
21749.3
23863.1
25954.6
28054.1
29921.6
31359.6
32194.9
32649.4
32839.6
32882
32849.4
32729.9
32582.2
32415.6
32250.8
32087.6
31933.1
31788.9
31657.4
31543.4
31451.1
31389.5
31361.4
31356.9
31396.6
31479.1
31605.9
31775.2
31988.3
32244.7
32540.9
32875.2
33245.7
33649.7
34084.5
34547.6
35036.5
35548.6
36081.4
36632.5
37199.6
37780.3
38372.4
38973.8
39582.3
40195.9
40812.8
41431.2
42049.6
42666.4
43280.4
43890.5
44496
45096.1
45690.4
46278.4
46859.7
47434
48001.1
48560.6
49112.2
49655.6
50190.5
50716.4
51233.2
51740.7
52237.3
52722.1
53193.9
53652
54095.3
54523
54934.1
55327.8
55703
56059.4
56397.2
56716.2
57016.5
57298.3
57561.6
57806.8
58034.3
58244.5
58437.7
58614.2
58774.1
58917.3
59043.7
59153
59244.7
59318.3
59373.2
59407.4
59420.8
59416
59387.9
59337.1
59263.5
59166.8
59047
58904.4
58739.7
58553.6
58347.5
58122.5
57880.1
57622
57349.6
57064.3
56766.7
56458
56141
55816.9
55486.6
55150.8
54809.9
54464.3
54114
53758.8
53398.4
53032.5
52660.7
52282.6
51898
51506.8
51109.1
50705.2
50295.7
49881.7
49464.3
49045.2
48625.9
48208.5
47795.3
47388.8
46991.7
46607.3
46241.9
45903
45596.1
45322
45084.5
44884.9
44751.5
44717.5
44867.5
9.88088e+06
416482
52887
16450
8322.51
5422.63
4088.85
3380.09
2986.43
2771.85
2672.35
2652.01
2695.19
2794.65
2947.35
3153.81
3417.07
3742.15
4135.68
4605.64
5161.18
5812.08
6568.36
7440.11
8435.07
9558.32
10810
12183.3
13662.1
15220.3
16819.4
18420.1
20019.2
21623.4
23146.1
24442.2
25349.6
25979.9
26390.7
26641.1
26740.6
26761
26745.5
26706.9
26649.5
26593
26541.8
26500.5
26473
26461.4
26460.5
26480.2
26522
26588.6
26683.4
26808.4
26965.1
27158.7
27389.7
27659
27966.4
28311.9
28694.2
29111.7
29562.6
30045.4
30557.8
31097.9
31663.5
32252.6
32862.7
33491.3
34136.2
34795.1
35465.9
36146.3
36834.2
37527.7
38224.8
38923.5
39622.3
40320.1
41014.9
41705.6
42391.4
43071.6
43745.6
44413
45073.4
45726.8
46372.8
47011.2
47641.8
48264.2
48878.1
49483.1
50079.4
50665.8
51240.8
51803.4
52352.3
52886.5
53404.9
53906.5
54390.3
54855.4
55300.9
55726.4
56131.5
56515.8
56879.4
57222.3
57544.7
57847.1
58129.6
58392.9
58637.4
58863.4
59071.1
59260.4
59431.2
59583
59715.1
59826.7
59916.8
59984.3
60026.3
60043.1
60035.9
59999.8
59934.9
59840.8
59717.2
59564.4
59382.9
59173.9
58939.1
58680.3
58399.8
58099.9
57783.2
57452.1
57108.7
56755.4
56394.4
56026.9
55654.6
55278.4
54899
54516.8
54132.1
53744.4
53353.3
52957.8
52557
52149.6
51734.8
51311.5
50879.2
50437.4
49986.2
49526
49058.2
48584.4
48106.5
47627.1
47148.9
46675
46208.5
45752.9
45311.2
44888
44488.1
44114.3
43767.5
43452.6
43170.9
42940.4
42777.7
42720.5
9.89116e+06
334234
44018.8
14810.1
7868.38
5302.28
4107.1
3488.77
3159.37
3001.05
2951.65
2980.24
3076.91
3234.67
3451.51
3728.57
4069.23
4478.39
4961.73
5525.07
6174.2
6914.5
7749.49
8679.43
9700.13
10802
11969.8
13182
14410.1
15646.5
16890.8
18130.5
19261.5
20179
20890.6
21429.3
21844.1
22124
22301.7
22407.5
22465.3
22501.7
22530.6
22557.6
22588.3
22628.1
22679.5
22744.5
22825.1
22922.9
23039.1
23177.4
23339.8
23528.7
23746.5
23995.1
24276.6
24593.1
24945.6
25335
25761.4
26224.6
26723.3
27256
27821.3
28417.5
29042.7
29694.9
30372.2
31073.4
31795.4
32535.3
33290.7
34059.3
34838.8
35627
36421.8
37221.1
38023.1
38825.6
39626.3
40422.4
41214.9
42002.9
42785.5
43562
44331.7
45094.3
45849.6
46597.3
47337.2
48069.1
48792.8
49507.7
50213.3
50908.7
51592.3
52263.7
52921.9
53565.6
54193.5
54804.3
55396.7
55969.5
56521.6
57052
57560
58044.8
58506.1
58943.7
59357.8
59748.3
60115.7
60460.4
60782.9
61083.7
61363.4
61622.4
61860.8
62078.5
62275.2
62450.2
62602.5
62730.9
62833.9
62909.8
62954.3
62969.4
62952.5
62900
62811.3
62685.5
62522.2
62321.6
62084.5
61812.8
61508.9
61175.8
60816.9
60435.9
60036.4
59622
59196.2
58761.9
58321.9
57878.2
57432.7
56986.7
56540.9
56095.8
55651.3
55207
54761.6
54313.6
53861.4
53402.8
52935.9
52458.9
51970.3
51468.8
50953.9
50425.9
49886.1
49336.5
48779.8
48219.5
47659.4
47103.5
46556.2
46021.4
45503.1
45005
44530.9
44084.4
43667
43280.9
42926.2
42614.6
42355
42139.9
9.89967e+06
285602
40305.7
14166.2
7746.2
5349.86
4247.28
3687.83
3410.29
3300.72
3292.67
3369.43
3518.02
3731.76
4008.41
4348.45
4753.99
5228.56
5778.82
6401.41
7092.28
7851
8673.77
9552.01
10473.6
11422.6
12384.1
13357.6
14348.2
15303.7
16161.9
16878.5
17478.9
17984.2
18386.2
18694.9
18929.5
19101.8
19230.8
19333.4
19423.4
19511.7
19604.2
19704.3
19814.9
19938.7
20077.5
20233
20407.2
20601.8
20819.1
21061.5
21331.4
21631.1
21962.7
22327.6
22727.1
23162.6
23635.2
24145.4
24694.1
25283.5
25909.3
26569.8
27263.6
27988.8
28743.4
29524.6
30328.8
31149.4
31988.5
32847
33723.1
34613.9
35516.4
36428.1
37346.8
38270.4
39197
40124.6
41051.5
41977.3
42898.9
43814.3
44722.5
45622.7
46514.4
47397.1
48270.6
49134.6
49989
50833.5
51667.7
52491
53302.6
54101.3
54886.3
55656.5
56410.6
57147.2
57864.7
58561.5
59236.1
59887
60513.1
61113.3
61687
62233.7
62753
63245.1
63710.3
64148.9
64561.5
64948.5
65310.6
65648.5
65962.7
66253.6
66521.5
66766.1
66987
67183.3
67353.7
67496.6
67609.9
67691.1
67735
67743.9
67711.8
67636.3
67515.5
67347.8
67132.5
66869.4
66559.6
66205.3
65810
65377.9
64914.2
64424
63913
63386.3
62848.9
62305.1
61758.6
61212.4
60668.7
60129.2
59594.9
59066.2
58543.1
58024.7
57509.5
56995
56478.7
55957.7
55428.5
54888.2
54334
53763.5
53175
52568.2
51944.1
51305.1
50654.5
49996.8
49337.2
48681.1
48034.4
47402.3
46789.7
46200.5
45638.4
45106.5
44606.4
44139.5
43705
43309.7
42959.2
42604.1
9.90704e+06
273061
38927.5
13981
7803.67
5505.28
4457.01
3941.53
3706.53
3633.77
3664.25
3783.38
3976.32
4235.32
4556.55
4938.25
5379.57
5880.41
6443.24
7073.76
7775.26
8469.52
9196.94
9944.63
10706.5
11484
12270.5
13022.1
13691.3
14288
14817.3
15280.4
15673
16002.2
16273.1
16495.6
16681.2
16840.5
16984.6
17122.9
17263.1
17410.5
17568.8
17740.5
17927.9
18133
18358
18604.7
18874.5
19169.3
19491.4
19843.3
20227.5
20647.6
21109.1
21608.4
22145.6
22721.6
23336.4
23988.9
24675.9
25388.5
26138.6
26928.2
27756
28620.1
29518
30447.4
31405.5
32390.8
33398.7
34424.7
35466.5
36520.9
37583.1
38650.8
39722.1
40795.7
41870.4
42944.6
44016.6
45084.4
46146.5
47201.8
48249
49287
50315
51332.3
52338.5
53333.3
54316.3
55287.2
56245.3
57190
58120.1
59034.4
59931.5
60810
61668.2
62504.4
63316.6
64102.7
64860.9
65589.4
66286.8
66952.1
67584.9
68185.2
68753.5
69290.5
69797
70273.9
70722.1
71142.5
71536
71903.4
72245.4
72562.2
72853.9
73120.1
73360.1
73573.1
73757.3
73910.8
74030.6
74113.4
74154.4
74152.6
74101.2
73997.2
73837.6
73619.6
73341.5
73002.6
72603.8
72147.3
71637.3
71079.4
70480.7
69848.9
69192.1
68517.6
67832.8
67143.8
66456.1
65774.1
65101
64438.7
63788.4
63151.3
62527.2
61914.8
61312.1
60715.9
60122.8
59528.5
58928.2
58317.3
57691.2
57045.7
56377.3
55684.3
54967.2
54227.9
53470.5
52700.4
51924.3
51149.9
50384.9
49636.4
48910.6
48212.7
47546.7
46915.6
46321.3
45764.4
45243.3
44761.1
44323
43842
9.91274e+06
266527
38296.4
13987.9
7957.89
5712.87
4699.11
4218.54
4016.92
3971.05
4033.11
4184.19
4407.77
4694.04
5036.61
5430.66
5871.87
6356.12
6881.28
7448.17
8056.14
8698.86
9355.55
9967.16
10587.4
11180.5
11728
12234.6
12705.2
13129.4
13507.8
13842.7
14136.6
14395
14623.9
14830.7
15023.2
15208.8
15394.5
15586.5
15789.6
16007.3
16242.3
16497.2
16774.5
17076.6
17407.3
17772.4
18167.6
18593.5
19051.9
19544.6
20072.3
20632.7
21216.6
21842.3
22515.3
23236.9
24007.2
24826.1
25693.9
26614.8
27583.6
28596.7
29649.7
30738.6
31860
33012
34189.1
35384.7
36593.1
37809.2
39028.3
40247.4
41466.4
42684.2
43900.7
45116.5
46332.4
47548.5
48764
49977.6
51188
52393.5
53591.8
54780.6
55958.3
57123.9
58276.5
59415.5
60540.3
61650.1
62743.9
63820.8
64879.1
65917.1
66932.8
67924
68888.7
69824.6
70729.2
71600.1
72434.6
73230.5
73986
74699.8
75371.4
76001.4
76592.7
77147.3
77667.1
78154.2
78610.3
79037.2
79436.8
79810.5
80159.3
80483.7
80783.1
81056.4
81302
81519.5
81707.4
81862.8
81981.8
82059.8
82092.2
82075.1
82000.8
81864.3
81661.7
81388.2
81040
80615.5
80115
79540.5
78896.2
78188
77424.1
76616
75775.2
74912.2
74037
73158.9
72286.1
71425.5
70582.2
69759.1
68956.9
68178.5
67424.3
66692.4
65979.6
65282.8
64597.4
63917.7
63237.2
62549.4
61847.4
61124.2
60373.8
59592.4
58778.3
57932.9
57059.8
56165.5
55258.3
54348.3
53445.8
52561
51702.2
50876.1
50088.2
49342
48639.6
47981
47364.1
46789
46262.8
45664.3
9.91671e+06
261736
38005.9
14108.6
8155.32
5938.25
4948.11
4492.33
4314.65
4286.92
4369.91
4539.42
4776.81
5069.92
5409.87
5789.32
6201.56
6640.29
7101.08
7582.77
8086.36
8617.54
9167.01
9705.19
10196.7
10626.6
11038.8
11426.4
11788
12122.2
12430.6
12716.2
12982.2
13232.9
13473.3
13708.8
13945.2
14188.3
14444.3
14719.9
15022.2
15348.5
15701
16081.9
16492.9
16934
17401
17881.4
18394.9
18948.8
19546.6
20191.5
20887.2
21639.1
22458.3
23342.3
24292.2
25308.9
26389.7
27532.6
28735.5
29996.8
31311.5
32671.9
34063.6
35476.8
36902.4
38330.2
39754.8
41172.7
42579.6
43971.9
45347.3
46705.8
48049.1
49377.7
50693.6
52002.8
53311.5
54624.6
55944.6
57271.8
58606.9
59948.2
61289.4
62624.5
63949.6
65262.6
66562.2
67847
69115.7
70367
71599.7
72811.8
74000.7
75163.6
76297.4
77398.8
78464.9
79492.6
80478.5
81419.5
82312.4
83154.4
83943.3
84677.2
85354.5
85972.4
86539.4
87061.2
87541.1
87983
88390.6
88767.8
89118.4
89445.4
89751.6
90038.5
90306.2
90552.8
90773.6
90966.8
91134.1
91271.4
91373.3
91432.9
91443.9
91403.2
91298.8
91126.1
90878.7
90548.8
90129.6
89616.3
89008.4
88307.9
87518.7
86646.1
85696.4
84682.3
83622
82529.2
81417.6
80300.3
79189.6
78096.6
77030.1
75996.1
74994.5
74030.3
73106.4
72220.2
71366.2
70542.5
69743.6
68961.7
68189.1
67417.2
66635.9
65835.1
65005.3
64138.8
63231
62280.6
61290.2
60266.1
59217.9
58158.2
57100.9
56060.1
55047.3
54072.3
53142.5
52263.1
51436.3
50662.2
49938.4
49262
48644.6
47933.4
9.91905e+06
258445
37907.3
14272
8360.42
6158.72
5183.51
4743.1
4579.99
4562.21
4654.95
4829.51
5065.21
5348.12
5667.75
6015.61
6384.4
6767.89
7161.85
7565.9
7985.76
8409.7
8836.18
9269.72
9701.5
10127.4
10493.9
10826.5
11150.6
11465.8
11775.4
12084.5
12393.4
12705.5
13024.6
13353.9
13695.7
14052.5
14425.7
14813.2
15210.6
15638.5
16104.2
16613.2
17171.5
17787.1
18465.5
19208.6
20012.7
20880.6
21816
22823.6
23909.3
25083.1
26363.6
27742.1
29210.2
30799.5
32481
34237.9
36055.2
37914.3
39793.4
41676.9
43555.6
45413.4
47234.7
49005.3
50712.8
52347.2
53901.9
55375.8
56773.9
58107
59396.4
60665.5
61894
63107.2
64324.8
65563.5
66836.2
68141.3
69487.3
70878.9
72300.2
73728.8
75154.7
76573.6
77982.9
79380.5
80764.4
82132.2
83481.9
84810
86112.8
87385.3
88622.4
89818.9
90969.8
92070.3
93115.6
94100.8
95021.9
95875.2
96658.5
97370.6
98011.7
98582.5
99084.4
99521.5
99898.3
100221
100496
100730
100932
101107
101263
101405
101537
101662
101779
101887
101980
102053
102100
102111
102077
101988
101838
101620
101324
100938
100454
99859.7
99148.7
98325.5
97393
96357.1
95226.7
94010.7
92722.2
91377.5
89993.9
88589.2
87181.5
85787.7
84423.6
83102.8
81835.9
80626.4
79477.2
78387.6
77348.7
76359.9
75416.6
74507.2
73623.6
72755.6
71889.5
71011.3
70107.3
69164.9
68174.5
67130
66030.5
64881
63691.3
62475.5
61251.2
60037.1
58850.3
57704.6
56611.4
55578.5
54609
53703
52859.1
52070.9
51356.7
50535.7
9.92011e+06
255997
37898.4
14442.8
8554.56
6361.71
5393.69
4960.38
4804.14
4790.01
4883.78
5053.59
5277.51
5541.12
5833.61
6146.73
6474.21
6811.67
7157.55
7505.81
7860.02
8229.3
8615.12
9018.16
9435.87
9865.7
10305.2
10753
11127
11506.4
11886.3
12265.1
12655.2
13063.9
13500
13962.1
14450.5
14968.4
15520
16112.8
16758.2
17460.8
18230.3
19077.3
20014.9
21118.7
22480.3
23959.8
25538.4
27219.9
29005
30893.9
32885.2
34972.5
37142
39395
41727.2
44127.6
46591.2
49106.3
51659.6
54235.1
56814.6
59379.4
61909.8
64385.3
66784
69083.1
71259
73286.5
75138.4
76786.3
78201.4
79354.2
80268.2
80994.2
81567.3
82091.7
82625.9
83223
84045
85041.7
86115.2
87315.4
88651
90021.8
91400.5
92779.4
94156.1
95529
96896.9
98257.8
99609.2
100948
102270
103569
104837
106067
107251
108382
109451
110452
111375
112214
112963
113619
114181
114652
115022
115295
115476
115571
115592
115555
115468
115343
115195
115035
114875
114721
114581
114455
114335
114218
114099
113970
113822
113639
113407
113115
112750
112298
111747
111088
110309
109402
108364
107198
105910
104507
102998
101400
99732.6
98016.8
96275.7
94532.4
92809.4
91128.3
89510.5
87963.8
86495.9
85114.8
83823.1
82613.9
81479.4
80404
79378.1
78392.1
77428.2
76468
75494
74487.8
73432.4
72314.8
71127.1
69870
68551.9
67186.7
65794.1
64397.4
63020.6
61684.3
60405.7
59197.1
58064.3
57007.5
56027.5
55114.9
54295.7
53366.1
9.92215e+06
254421
37962.1
14612.8
8736.72
6549.39
5583.12
5152.77
5000.32
4987.13
5078.3
5240.57
5451.89
5698.53
5971.11
6264.12
6572.81
6892.34
7220.04
7561.55
7920.08
8304.4
8719.08
9164.25
9640.4
10149.2
10694.3
11267.7
11859.1
12450.4
13010.4
13607.9
14248
14977.5
15906.5
16860.5
17858.5
18910.3
20027
21221.9
22509.4
23901.6
25416.7
27070.3
28854
30758.7
32774.2
34899.9
37157.3
39552.8
42088.1
44762.2
47571.2
50507.3
53558.3
56711.4
59952.7
63266
66634.2
70038.3
73457.5
76869.6
80250.9
83578.1
86828.2
89978.9
93008.2
95894.9
98618.6
101159
103495
105603
107448
108975
110197
111201
112020
112637
113054
113288
113359
113332
113295
113333
114261
115228
116207
117197
118200
119220
120260
121319
122397
123491
124598
125710
126818
127910
128974
129997
130969
131874
132699
133427
134046
134543
134912
135146
135237
135192
135035
134748
134365
133900
133369
132789
132180
131560
130944
130344
129767
129219
128703
128223
127774
127354
126955
126555
126138
125688
125188
124621
123971
123221
122356
121354
120206
118904
117450
115852
114122
112280
110344
108335
106279
104197
102116
100059
98047.1
96099.3
94235.2
92472.9
90828.4
89297.5
87877.8
86565.5
85344.3
84197.6
83106.2
82045.3
80995.4
79931
78827.1
77661.6
76417.3
75083.9
73665.7
72173.9
70627.3
69051.6
67477.9
65935.9
64450
63040.1
61718.9
60488
59351.7
58298.2
57360.8
56321.1
9.93214e+06
252841
37952.5
14739.3
8890.6
6714.64
5756.85
5336.9
5194.79
5188.52
5287.12
5455.65
5674.45
5930.46
6214.36
6520.16
6846.58
7197.39
7576.09
7988.4
8452.4
8994.75
9618.9
10295.3
11028.4
11834.8
12882.7
14011.8
15085
16164.3
17293.1
18493.3
19783.5
21172.4
22654.3
24240.5
25938.4
27757.8
29711.2
31814
34082.4
36521.7
39134.5
41933
44912
48060.2
51368.7
54830.1
58443.2
62202.7
66099.4
70120.3
74249.2
78467
82751.7
87080.7
91430.6
95777.6
100097
104365
108556
112646
116610
120428
124077
127540
130801
133846
136665
139247
141585
143672
145499
147042
148263
149232
149969
150442
150680
150704
150508
150134
149590
148938
149099
149219
149342
149492
149686
149937
150251
150631
151077
151586
152153
152769
153422
154095
154771
155433
156063
156644
157153
157568
157869
158043
158071
157949
157690
157248
156662
155941
155102
154160
153132
152040
150908
149759
148613
147489
146398
145350
144353
143414
142532
141705
140925
140178
139450
138726
137985
137204
136358
135423
134372
133185
131850
130359
128712
126917
124987
122939
120789
118558
116263
113925
111566
109208
106871
104577
102349
100210
98177.1
96265.3
94486.7
92851.5
91348.4
89962.7
88683.4
87487.4
86341.3
85212.7
84068.6
82877.5
81613.7
80257.6
78797
77232.9
75578.2
73857.1
72104.7
70357.8
68650.3
67012.8
65471.3
64041.6
62727.5
61516.1
60445.6
59293.5
9.94632e+06
252931
38036.6
14866.1
9040.96
6889.25
5961.38
5573.42
5458.94
5487.27
5625.88
5839.41
6108.72
6425.4
6788.89
7198.92
7659.33
8204.42
8870.43
9610.44
10476.1
11674.8
13237.7
14686.8
16119
17634.7
19277.1
21074.6
23060.1
25251.5
27654.3
30264.8
33074.2
36070.9
39244.8
42598.6
46128.2
49828.6
53703.7
57768.2
62076.5
66582.1
71244.5
76012.4
80892.3
85873.1
90933
96057.7
101237