/*--------------------------------*- C++ -*----------------------------------*\
| =========                 |                                                 |
| \\      /  F ield         | OpenFOAM: The Open Source CFD Toolbox           |
|  \\    /   O peration     | Version:  2312                                  |
|   \\  /    A nd           | Website:  www.openfoam.com                      |
|    \\/     M anipulation  |                                                 |
\*---------------------------------------------------------------------------*/
FoamFile
{
    version     2.0;
    format      ascii;
    arch        "LSB;label=32;scalar=64";
    class       volScalarField;
    location    "constant";
    object      Dwf;
}
// * * * * * * * * * * * * * * * * * * * * * * * * * * * * * * * * * * * * * //

dimensions      [0 0 0 0 0 0 0];

internalField   nonuniform List<scalar> 
12225
(
0.269044
0.218744
0.0828417
0.0972159
0.257795
0.195928
0.225755
0.192911
0.328915
0.310407
0.390435
0.326316
0.26246
0.341814
0.35366
0.418165
0.463924
0.494479
0.337093
0.300428
0.262064
0.183339
0.143858
0.111222
0.0289899
0.0131877
0.00920798
0.00506059
0.0045318
0.012949
0.0259875
0.0133693
0.012478
0.0189962
0.0157711
0.0811228
0.640537
0.229023
0.260263
0.257561
0.122907
0.165054
0.118041
0.0616872
0.0223743
0.00928796
0.00971865
0.00529274
0.00219155
0.00415902
0.000435409
0.00415529
0.00930498
0.00900536
0.445167
0.414234
0.214828
0.253607
0.226232
0.244532
0.152439
0.112896
0.111726
0.0430359
0.03179
0.0342698
0.0345656
0.0291751
0.0281394
0.00539106
0.00701229
0.00682727
0.3902
0.270731
0.39174
0.411444
0.262727
0.269559
0.347215
0.199455
0.0868374
0.0480865
0.0019021
0.0037194
0.00217718
0.00657244
0.00418116
0.019299
0.0101241
0.00854467
0.337576
0.213888
0.469348
0.515862
0.556083
0.50879
0.129093
0.226863
0.219165
0.0511493
0.0456579
0.0646347
0.0241592
0.0276415
0.0452177
0.082567
0.145227
0.170763
0.572353
0.049277
0.326357
0.504779
0.538849
0.376878
0.0911566
0.041692
0.0395584
0.0104959
0.00292526
0.00607986
0.00278323
0.00673314
0.00585105
0.125416
0.165771
0.298391
0.60498
0.0674566
0.220585
0.306244
0.334153
0.35831
0.23027
0.012366
0.006472
0.0150813
0.00749362
0.00330066
0.00231196
0.000297775
0.00228137
0.00259044
0.0126561
0.00825441
0.661574
0.415453
0.17815
0.183969
0.323765
0.191759
0.185812
0.0151537
0.00625439
0.00897258
0.0182513
0.00882924
0.00768714
0.00516938
0.00866213
0.00558792
0.00048296
0.00263089
0.519309
0.0217263
0.0439063
0.213076
0.25955
0.2304
0.0420199
0.00227584
0.00425042
0.000218654
0.00990877
0.00596359
0.00818661
0.000310917
0.000357563
0.00232957
0.000548821
0.00268168
0.354576
0.0241533
0.0242731
0.0651004
0.166395
0.0972671
0.0151178
0.000110327
0.00208647
0.000148059
0.000171327
0.000231836
0.000241988
0.000280223
0.000337161
0.000439059
0.000544003
0.000732115
0.602927
0.0709152
0.0247284
0.0373182
0.0968924
0.0697792
0.00942459
0.000123561
0.000129266
0.000130829
0.000152323
0.000180692
0.000225254
0.000285649
0.000348069
0.000445851
0.000548283
0.000686848
0.615843
0.140708
0.0184619
0.0220045
0.0298507
0.0168735
0.00707436
0.000146256
0.000140203
0.000141084
0.000152203
0.000186525
0.000223926
0.000275434
0.000325188
0.000421835
0.000521549
0.000654179
0.629656
0.137402
0.0341311
0.0425716
0.0197323
0.00963675
0.0108846
0.000115875
0.00373417
0.000146079
0.000163466
0.00253448
0.000219791
0.000273638
0.000309145
0.000406309
0.000485558
0.000621118
0.524829
0.198417
0.0830956
0.0251661
0.0169196
0.0077631
0.0107523
0.00556282
0.00675153
0.000141601
0.00495861
0.000211
0.00025325
0.000274352
0.000321782
0.000384966
0.000476762
0.000561192
0.565481
0.234711
0.128688
0.0401952
0.0164159
0.00648503
0.000193814
0.00182427
0.000110336
0.000130981
0.00200681
0.00213964
0.00207605
0.000255394
0.00150842
0.00278543
0.00244046
0.00453296
0.64566
0.277765
0.210218
0.113225
0.0653195
0.0152889
0.00623688
0.0040836
0.00611036
0.00414061
0.00215689
0.00654055
0.000201853
0.00326663
0.000487459
0.00286287
0.00153975
0.00284792
0.570593
0.356672
0.295259
0.256673
0.185978
0.0262632
0.0157973
0.0120851
0.00204763
0.00406052
0.000141481
0.012484
0.00229326
0.0103265
0.00235738
0.00249247
0.00260797
0.00572244
0.719561
0.309718
0.237602
0.169948
0.126701
0.0584313
0.0443094
0.0021247
0.00214819
0.000115189
0.000150709
0.00018381
0.000202491
0.00421876
0.00216171
0.00230725
0.00566489
0.00716781
0.460784
0.278977
0.157831
0.0924009
0.0154899
0.0129163
0.00848975
0.000107158
0.00203796
0.00011267
0.00199121
0.000173285
0.000201087
0.000218525
0.000250315
0.000269411
0.000302708
0.00436433
0.63095
0.371902
0.127891
0.0459541
0.0199171
0.00999921
0.0135342
0.00577083
0.0128628
0.00504046
0.00335832
0.000200162
0.00106021
0.00109236
0.00513787
0.0172001
0.00534593
0.0181491
0.417371
0.198284
0.111664
0.0241192
0.0267504
0.0126065
0.0227101
0.015177
0.0131751
0.000431499
0.000170776
0.00106745
0.00112485
0.00524496
0.00539364
0.0119297
0.0118114
0.0218345
0.399804
0.129587
0.0159165
0.0201757
0.107805
0.116535
0.158011
0.0279042
0.0328348
0.0126323
0.00295506
0.00042438
0.000708381
0.00314702
0.000962082
0.00512346
0.0136519
0.0120899
0.659474
0.38921
0.0154455
0.00521059
0.147792
0.264953
0.271971
0.270797
0.244782
0.109404
0.0315926
0.00186003
0.00295019
0.00308227
0.00515866
0.00975481
0.014668
0.0269707
0.663303
0.291856
0.0156297
0.0112992
0.295921
0.287613
0.319109
0.337378
0.313524
0.15331
0.0637153
0.013054
0.0308683
0.0580196
0.0933727
0.114572
0.138913
0.20044
0.64981
0.497408
0.0616063
0.0260429
0.308164
0.498711
0.525213
0.481561
0.307546
0.235401
0.389503
0.400905
0.34377
0.285437
0.250095
0.252946
0.235259
0.238236
0.709319
0.668547
0.258691
0.0217853
0.477764
0.231758
0.231901
0.192132
0.207778
0.0973187
0.0544893
0.0458401
0.0460466
0.0730918
0.0278347
0.0233169
0.0241868
0.0261497
0.535065
0.751671
0.222719
0.209207
0.213972
0.257715
0.253915
0.0802345
0.111953
0.0737135
0.0635108
0.0280646
0.0279165
0.0547941
0.0657837
0.0548518
0.0532734
0.0201129
0.276744
0.265092
0.270507
0.218072
0.25333
0.127327
0.141342
0.117197
0.0870502
0.043468
0.0251603
0.00713696
0.00636621
0.00913294
0.0274456
0.000300518
3.53273e-07
3.09991e-07
0.3223
0.230324
0.25417
0.233796
0.0792714
0.0842215
0.181807
0.171196
0.191441
0.166095
0.176088
0.138282
0.189184
0.184476
0.207857
0.211081
0.201259
0.212508
0.889432
0.839993
0.77801
0.801687
0.782718
0.762699
0.70916
0.695081
0.677782
0.674156
0.667502
0.651464
0.657919
0.642424
0.648102
0.650411
0.709271
0.733299
0.70266
0.763945
0.782639
0.821151
0.793838
0.792427
0.793082
0.845394
0.620512
0.736391
0.714232
0.684985
0.683705
0.838599
0.874362
0.769374
0.748465
0.766374
0.773455
0.75873
0.747644
0.749384
0.747784
0.618472
0.626608
0.60158
0.589507
0.615538
0.639621
0.584147
0.630019
0.751945
0.720582
0.787158
0.749253
0.810436
0.863039
0.826116
0.683444
0.746435
0.750783
0.739149
0.740931
0.664179
0.645808
0.642797
0.67206
0.592703
0.593946
0.565389
0.537249
0.552974
0.539107
0.587987
0.594295
0.543825
0.522695
0.545163
0.514932
0.533096
0.513305
0.532462
0.506888
0.521353
0.492947
0.516708
0.487213
0.515553
0.488671
0.517917
0.488147
0.510311
0.487987
0.505075
0.493792
0.492595
0.406816
0.40083
0.339766
0.326174
0.325709
0.325204
0.317536
0.309935
0.310185
0.302324
0.313565
0.291079
0.312266
0.31978
0.332922
0.327822
0.358612
0.379699
0.325624
0.344397
0.342342
0.372498
0.366009
0.415947
0.444731
0.55986
0.540947
0.548865
0.498467
0.514942
0.505525
0.519455
0.507258
0.514094
0.50197
0.470794
0.474061
0.48048
0.477689
0.443648
0.431761
0.485225
0.477419
0.49722
0.499738
0.503463
0.503946
0.516421
0.523493
0.536074
0.526793
0.543142
0.544583
0.545073
0.541689
0.571068
0.578778
0.587807
0.62463
0.644179
0.669788
0.657408
0.70271
0.739353
0.746125
0.761932
0.769295
0.761105
0.768548
0.776143
0.759593
0.739115
0.79044
0.794437
0.722696
0.667027
0.673366
0.704531
0.721703
0.694563
0.708246
0.674059
0.706831
0.707961
0.710688
0.704313
0.869749
0.858773
0.879414
0.807612
0.807593
0.74986
0.768223
0.610384
0.635677
0.707662
0.692623
0.639103
0.644005
0.659651
0.668535
0.682119
0.673353
0.639101
0.592575
0.604957
0.617821
0.716779
0.729386
0.738789
0.752042
0.792704
0.819463
0.833627
0.828337
0.804148
0.810831
0.788843
0.789185
0.790574
0.766055
0.796462
0.803121
0.792509
0.790571
0.808988
0.802871
0.801524
0.802678
0.762155
0.478517
0.678648
0.731344
0.726705
0.732101
0.669768
0.707384
0.677003
0.68792
0.638514
0.615912
0.604764
0.582817
0.672455
0.612367
0.607498
0.531106
0.487934
0.477818
0.472436
0.445292
0.450897
0.446121
0.437255
0.414202
0.418773
0.415152
0.43594
0.473401
0.28335
0.208503
0.218937
0.207679
0.212244
0.202636
0.21899
0.216839
0.206938
0.201633
0.197394
0.203833
0.199713
0.19826
0.184762
0.175689
0.167561
0.169315
0.168009
0.169082
0.169334
0.282482
0.27887
0.278071
0.274184
0.271165
0.36557
0.510464
0.643683
0.48779
0.452948
0.446675
0.455785
0.447229
0.450124
0.449749
0.443148
0.446502
0.445744
0.454789
0.463003
0.467156
0.471222
0.469674
0.467161
0.464018
0.47116
0.465489
0.467014
0.464135
0.465247
0.464775
0.464933
0.474864
0.506333
0.498445
0.521505
0.521907
0.515801
0.517346
0.53103
0.555771
0.564485
0.552399
0.514763
0.528555
0.551265
0.615663
0.806713
0.811054
0.791097
0.868775
0.866696
0.644813
0.598066
0.57936
0.578619
0.553224
0.625743
0.641753
0.601006
0.621655
0.646151
0.653553
0.632423
0.682079
0.672166
0.65802
0.807032
0.723715
0.652683
0.632355
0.631337
0.623349
0.519147
0.503263
0.475977
0.482933
0.569358
0.579912
0.569158
0.582582
0.563252
0.567835
0.523172
0.570008
0.482448
0.828604
0.80568
0.828834
0.754442
0.584836
0.821819
0.825876
0.667167
0.652825
0.660959
0.696113
0.682417
0.675514
0.666866
0.649904
0.624269
0.607907
0.590053
0.577601
0.583656
0.704005
0.774044
0.844156
0.81149
0.853692
0.835435
0.827449
0.807371
0.814528
0.812204
0.783968
0.768373
0.767085
0.787342
0.728902
0.463535
0.492699
0.555726
0.602694
0.579421
0.616853
0.466143
0.539171
0.465308
0.564033
0.482795
0.731494
0.639603
0.833801
0.74344
0.622521
0.561563
0.551818
0.456611
0.524535
0.575625
0.614647
0.628529
0.621192
0.641807
0.602504
0.491823
0.470935
0.465937
0.448092
0.426444
0.4503
0.422088
0.442726
0.425063
0.434461
0.420405
0.397201
0.271388
0.229619
0.187005
0.176867
0.177896
0.17254
0.171018
0.164279
0.165378
0.150672
0.158832
0.164033
0.183763
0.17939
0.199969
0.195825
0.206272
0.210449
0.226157
0.220581
0.235681
0.242687
0.280378
0.418611
0.66524
0.84138
0.70149
0.487438
0.46143
0.45316
0.515963
0.586066
0.579242
0.562428
0.546905
0.531738
0.533433
0.542152
0.535307
0.532492
0.536112
0.538516
0.5403
0.543169
0.536201
0.541225
0.535753
0.542194
0.534973
0.516276
0.51339
0.505062
0.485336
0.500373
0.508367
0.495193
0.485459
0.484349
0.480823
0.470541
0.470775
0.473422
0.474889
0.49326
0.48867
0.508562
0.500987
0.553844
0.550995
0.560735
0.564655
0.577616
0.571283
0.604208
0.578409
0.582409
0.566209
0.602328
0.598936
0.621577
0.620873
0.635666
0.653318
0.706031
0.631207
0.822302
0.746218
0.643302
0.681509
0.584826
0.503324
0.425322
0.459655
0.455939
0.460982
0.430966
0.419124
0.446582
0.428496
0.409706
0.380264
0.382573
0.375768
0.394261
0.401461
0.443835
0.44687
0.780765
0.823013
0.798039
0.722819
0.72657
0.759356
0.756226
0.766124
0.658337
0.689446
0.682012
0.669372
0.663863
0.642058
0.634155
0.696572
0.713543
0.704567
0.744613
0.772164
0.76836
0.765005
0.804321
0.821737
0.855999
0.834233
0.826374
0.781899
0.683198
0.511168
0.432117
0.500356
0.588708
0.556588
0.536553
0.416962
0.479826
0.408363
0.500214
0.449679
0.712798
0.638581
0.727974
0.663555
0.784448
0.734046
0.762371
0.743211
0.717699
0.6512
0.667797
0.634473
0.602076
0.618278
0.599845
0.337981
0.34276
0.349865
0.511249
0.793756
0.75589
0.815654
0.742679
0.687313
0.677973
0.672482
0.689293
0.761185
0.771138
0.69854
0.537845
0.403657
0.390422
0.205203
0.153061
0.191926
0.280108
0.228481
0.234711
0.467117
0.499726
0.345327
0.380779
0.370969
0.381748
0.370148
0.379261
0.363115
0.381714
0.37089
0.376293
0.376169
0.381747
0.375419
0.382689
0.474932
0.359286
0.348669
0.325706
0.336496
0.33519
0.322103
0.325691
0.317592
0.322284
0.309757
0.323557
0.308916
0.321004
0.293509
0.307062
0.294905
0.305018
0.402144
0.418397
0.44217
0.457394
0.490816
0.501532
0.508285
0.510883
0.498862
0.503767
0.496892
0.49211
0.498601
0.512636
0.506987
0.516699
0.50828
0.521759
0.511341
0.52723
0.512472
0.536735
0.491279
0.503032
0.49659
0.52223
0.527036
0.524141
0.527554
0.536118
0.524551
0.560401
0.546255
0.573539
0.561156
0.575139
0.551898
0.590572
0.614165
0.613308
0.61161
0.655884
0.667425
0.834591
0.688393
0.591392
0.515152
0.377092
0.374618
0.392357
0.364967
0.359471
0.342996
0.328195
0.264175
0.231135
0.185209
0.173957
0.0852428
0.118917
0.092644
0.130281
0.128755
0.115458
0.118763
0.135319
0.132822
0.767814
0.855083
0.736425
0.762676
0.788372
0.779813
0.789474
0.779798
0.652465
0.624825
0.634089
0.61717
0.743902
0.744024
0.769704
0.75483
0.782799
0.770092
0.665534
0.654546
0.637888
0.596397
0.558643
0.524278
0.501233
0.63388
0.601539
0.577883
0.560002
0.552487
0.616574
0.457774
0.552567
0.48126
0.733113
0.680628
0.779572
0.656318
0.76039
0.770727
0.782649
0.733925
0.768692
0.754454
0.766795
0.714466
0.710156
0.702573
0.505384
0.36114
0.354003
0.408368
0.732213
0.797923
0.783776
0.692906
0.672839
0.772939
0.720766
0.708214
0.430943
0.37199
0.311497
0.342378
0.358381
0.345736
0.325247
0.296179
0.236915
0.271458
0.40188
0.269281
0.39354
0.33191
0.389229
0.337348
0.393342
0.354851
0.393692
0.355944
0.388426
0.359533
0.385318
0.358423
0.386992
0.362026
0.383981
0.362866
0.388715
0.362025
0.388686
0.37762
0.381653
0.45547
0.410614
0.380931
0.376995
0.392324
0.369459
0.382735
0.353648
0.374626
0.341479
0.359719
0.342629
0.357465
0.347692
0.352208
0.348091
0.352838
0.340383
0.331042
0.315101
0.331821
0.319503
0.33275
0.328334
0.474088
0.487047
0.48903
0.514141
0.516504
0.545635
0.532588
0.541078
0.534057
0.549403
0.535565
0.541886
0.520557
0.518812
0.504726
0.512491
0.503601
0.545179
0.528371
0.565894
0.545966
0.58198
0.557569
0.585335
0.555106
0.590084
0.564505
0.600733
0.551066
0.585347
0.540904
0.602342
0.625009
0.64277
0.650869
0.675877
0.681827
0.804942
0.842272
0.631055
0.389506
0.393813
0.34951
0.352159
0.334641
0.339069
0.347106
0.272227
0.221068
0.149458
0.120757
0.0853686
0.0686029
0.0516516
0.0283534
0.0238668
0.0324803
0.0531042
0.0451881
0.0815058
0.0913289
0.0978418
0.0928795
0.862524
0.718039
0.708949
0.765703
0.735565
0.742484
0.734276
0.735738
0.736805
0.747823
0.798282
0.783232
0.78308
0.631363
0.816688
0.618767
0.509106
0.445786
0.660622
0.613187
0.654516
0.605751
0.5517
0.480328
0.622237
0.579383
0.622041
0.636877
0.657953
0.653517
0.757774
0.718687
0.804558
0.796157
0.844504
0.737563
0.800101
0.758305
0.784588
0.763996
0.783954
0.716718
0.691156
0.364864
0.356919
0.347125
0.508502
0.759657
0.74501
0.782983
0.654876
0.67879
0.716681
0.705489
0.431774
0.379772
0.325265
0.366832
0.418183
0.446574
0.406544
0.623863
0.349301
0.285223
0.390643
0.284437
0.394869
0.288646
0.405224
0.299834
0.409503
0.296314
0.427191
0.346421
0.442013
0.390799
0.438389
0.391782
0.415755
0.375526
0.399831
0.384723
0.407446
0.402354
0.398106
0.402532
0.40444
0.395172
0.399905
0.400503
0.405582
0.477012
0.411846
0.382155
0.367715
0.37043
0.351072
0.359856
0.352722
0.361342
0.345781
0.359595
0.346009
0.355848
0.343051
0.351236
0.344812
0.349766
0.351992
0.353068
0.341326
0.350837
0.32181
0.326494
0.30411
0.312273
0.312346
0.312793
0.313202
0.482654
0.53258
0.501989
0.540222
0.51156
0.56172
0.523962
0.571585
0.543173
0.576085
0.547028
0.586122
0.568193
0.61408
0.600347
0.622068
0.616661
0.660548
0.655366
0.684758
0.664828
0.694123
0.667592
0.711239
0.654249
0.685561
0.672981
0.741636
0.735252
0.736102
0.797298
0.744937
0.761467
0.358025
0.370629
0.351797
0.303066
0.381061
0.380378
0.433714
0.372391
0.340417
0.250906
0.244197
0.112971
0.0971816
0.058666
0.0375137
0.0289863
0.0243317
0.0249851
0.0210202
0.0181208
0.0151485
0.0207514
0.0221614
0.0296329
0.038994
0.0460407
0.0614788
0.0607051
0.869743
0.744704
0.768457
0.730277
0.711737
0.733666
0.707259
0.732004
0.733247
0.809556
0.852457
0.799214
0.688949
0.647403
0.67415
0.661925
0.637261
0.595755
0.643252
0.601947
0.648303
0.562731
0.572716
0.597908
0.673592
0.627126
0.685436
0.748479
0.859082
0.750591
0.808558
0.776414
0.794508
0.763769
0.78173
0.766971
0.774032
0.588262
0.387074
0.353583
0.362842
0.337514
0.406578
0.748147
0.736386
0.790354
0.661327
0.684279
0.715719
0.694177
0.436238
0.379085
0.700456
0.615387
0.631603
0.601855
0.574377
0.304666
0.3237
0.286574
0.327364
0.277467
0.334403
0.379451
0.429176
0.308827
0.433807
0.306203
0.435456
0.308235
0.447317
0.322245
0.447038
0.339497
0.439051
0.374796
0.446206
0.38519
0.427826
0.374541
0.403213
0.373229
0.395278
0.361484
0.387842
0.372307
0.387514
0.380206
0.453294
0.417104
0.347603
0.351524
0.333482
0.35463
0.330475
0.342422
0.323045
0.341991
0.317731
0.336973
0.31908
0.346342
0.33258
0.350154
0.334988
0.367218
0.343022
0.36634
0.355483
0.356215
0.355827
0.350592
0.349528
0.343685
0.339866
0.328339
0.328029
0.330324
0.326637
0.328082
0.343339
0.328779
0.560124
0.531852
0.571123
0.542141
0.592289
0.566171
0.605821
0.585055
0.643671
0.62758
0.654769
0.638657
0.671109
0.6529
0.687008
0.671236
0.693233
0.684078
0.697408
0.685625
0.702013
0.764412
0.779105
0.783581
0.817292
0.84562
0.790071
0.354349
0.345227
0.358264
0.372923
0.37219
0.391616
0.333549
0.306355
0.23446
0.219364
0.173531
0.146053
0.123476
0.103309
0.0543789
0.0400848
0.0282364
0.0290268
0.0248406
0.0218685
0.0200356
0.0162617
0.0173999
0.0167258
0.019177
0.0172286
0.0206055
0.026717
0.0193839
0.0266459
0.0305529
0.886362
0.617968
0.749482
0.680538
0.697923
0.694752
0.704339
0.697426
0.847913
0.807322
0.826225
0.680261
0.690556
0.678106
0.646052
0.569832
0.635504
0.586923
0.666632
0.594867
0.758156
0.688561
0.730592
0.639195
0.699086
0.507091
0.473816
0.462032
0.797118
0.748365
0.76301
0.62639
0.487741
0.457096
0.454778
0.380169
0.382833
0.373992
0.397638
0.611667
0.79807
0.823532
0.74627
0.753704
0.754274
0.811057
0.737811
0.628347
0.56558
0.575927
0.561659
0.550533
0.51944
0.250917
0.316549
0.271367
0.33752
0.306013
0.394936
0.333894
0.426911
0.333325
0.402188
0.308131
0.392215
0.317941
0.391413
0.308547
0.361601
0.282515
0.356667
0.311315
0.351302
0.262597
0.469944
0.407001
0.451914
0.376674
0.403108
0.373815
0.397563
0.386409
0.434
0.418904
0.445278
0.37379
0.366482
0.337114
0.342082
0.333629
0.322638
0.336566
0.331526
0.355677
0.338803
0.380265
0.3319
0.378572
0.336957
0.380952
0.344645
0.381677
0.364572
0.382566
0.363269
0.374348
0.366017
0.375659
0.369917
0.373219
0.355202
0.368973
0.360488
0.358567
0.355527
0.348151
0.340313
0.331133
0.348825
0.350404
0.364951
0.349948
0.38502
0.349714
0.565786
0.556547
0.598022
0.605452
0.629876
0.619902
0.646237
0.620192
0.648114
0.638412
0.661299
0.667811
0.662222
0.664084
0.675463
0.703726
0.740957
0.780288
0.809096
0.826426
0.819211
0.396078
0.385968
0.372039
0.350054
0.257176
0.185302
0.158848
0.139237
0.118684
0.122176
0.108927
0.106556
0.0922363
0.0903167
0.0977513
0.101866
0.0885729
0.0505645
0.0399754
0.031364
0.0254023
0.0274277
0.0179832
0.020678
0.0183855
0.0175037
0.0171454
0.0179393
0.0173414
0.0177625
0.0236433
0.0229157
0.0252643
0.0392915
0.0258955
0.977722
0.797649
0.707847
0.696849
0.701448
0.693692
0.709968
0.717548
0.841423
0.757082
0.693564
0.539898
0.620623
0.510517
0.597535
0.578068
0.73439
0.711548
0.764385
0.701152
0.783139
0.695148
0.652526
0.471337
0.469183
0.490603
0.498963
0.471102
0.507639
0.46555
0.458934
0.42835
0.381865
0.360241
0.373489
0.357496
0.465989
0.801884
0.798691
0.796893
0.764029
0.774088
0.799717
0.691365
0.594442
0.546875
0.538863
0.546215
0.517633
0.49775
0.462289
0.271081
0.324493
0.302816
0.353733
0.332684
0.410029
0.368041
0.448233
0.392661
0.460437
0.384731
0.4504
0.373887
0.406745
0.332827
0.382667
0.327744
0.355466
0.296756
0.323342
0.267694
0.319442
0.262807
0.339641
0.317274
0.356337
0.349678
0.3591
0.345661
0.351181
0.353171
0.368358
0.360505
0.348412
0.368813
0.361672
0.391688
0.341639
0.377315
0.336715
0.376466
0.338223
0.379889
0.34053
0.387128
0.346811
0.393696
0.370162
0.404271
0.374343
0.398077
0.378283
0.396532
0.379081
0.399017
0.364432
0.390874
0.364606
0.383421
0.359522
0.372205
0.362905
0.365213
0.361886
0.365179
0.367131
0.353603
0.367401
0.346558
0.36898
0.342278
0.389938
0.351869
0.418423
0.368555
0.625241
0.61068
0.654416
0.629041
0.672484
0.641658
0.64881
0.656872
0.677242
0.692622
0.770069
0.786421
0.840902
0.793566
0.38906
0.190433
0.173952
0.13083
0.138517
0.137336
0.120297
0.0907966
0.085382
0.0674684
0.0745805
0.0568859
0.0648647
0.0632305
0.0721546
0.0640508
0.0688668
0.0598218
0.0333841
0.0315715
0.0433079
0.0285473
0.0293095
0.025799
0.0259307
0.0220233
0.0263673
0.0236174
0.0259213
0.0192864
0.0167417
0.0169226
0.016989
0.0171221
0.0174503
0.0247292
0.0196108
0.0302802
0.0289401
0.0233468
0.880683
0.840076
0.676786
0.706071
0.708449
0.707394
0.730537
0.758359
0.736533
0.524511
0.602309
0.56368
0.623072
0.558957
0.668443
0.611759
0.682332
0.563068
0.618631
0.479602
0.581245
0.559394
0.480856
0.46643
0.53625
0.459219
0.434118
0.397242
0.420888
0.391006
0.370798
0.348102
0.35784
0.425663
0.842839
0.876414
0.832536
0.821584
0.767301
0.784056
0.703838
0.642199
0.571374
0.549368
0.569086
0.543399
0.48423
0.477568
0.31415
0.276175
0.312216
0.276837
0.330278
0.304824
0.378333
0.320088
0.393231
0.329355
0.398126
0.350619
0.410882
0.38232
0.421732
0.384789
0.432992
0.40402
0.423246
0.376128
0.371846
0.328899
0.363654
0.302419
0.354246
0.295982
0.373205
0.344004
0.388326
0.352538
0.390412
0.348021
0.35649
0.373317
0.394857
0.402703
0.410319
0.450993
0.403449
0.439372
0.38735
0.407081
0.368142
0.421228
0.381597
0.42646
0.397855
0.433499
0.402598
0.426836
0.398395
0.429325
0.404875
0.429812
0.400236
0.427938
0.393113
0.420711
0.400553
0.409928
0.395598
0.400271
0.395663
0.391413
0.389161
0.387727
0.398171
0.377178
0.399539
0.358
0.398324
0.351711
0.396173
0.370827
0.414182
0.415558
0.430315
0.401357
0.434435
0.372192
0.615147
0.654986
0.69799
0.733746
0.783741
0.772788
0.453994
0.287606
0.193437
0.100049
0.0819253
0.0345859
0.0506915
0.0312654
0.0249581
0.0196174
0.0311842
0.0274951
0.0307642
0.0253649
0.0349192
0.0301148
0.0355936
0.0295701
0.0367855
0.0334067
0.0338695
0.0321503
0.0293438
0.033304
0.030089
0.0345474
0.0347967
0.0261811
0.0324197
0.0308856
0.0367776
0.0310288
0.0323244
0.0252759
0.0298767
0.0246787
0.0225669
0.0161923
0.0162104
0.0171376
0.0165018
0.023494
0.031059
0.0513223
0.142853
0.0694694
0.87027
0.862822
0.769935
0.811611
0.774068
0.783538
0.761603
0.677332
0.621645
0.534473
0.615881
0.534672
0.637549
0.538311
0.617536
0.516441
0.608372
0.484423
0.558822
0.653286
0.562519
0.474666
0.508647
0.482774
0.467474
0.400859
0.408065
0.389831
0.379404
0.370505
0.415879
0.456107
0.841759
0.887424
0.864692
0.885385
0.850812
0.742889
0.72853
0.613891
0.557428
0.562974
0.54555
0.518601
0.47647
0.454939
0.327342
0.284628
0.318999
0.283285
0.323573
0.286299
0.344273
0.308682
0.364427
0.322814
0.368006
0.322805
0.376341
0.322157
0.390549
0.34415
0.39021
0.347246
0.410958
0.356703
0.422122
0.38509
0.443062
0.383405
0.472074
0.339976
0.410709
0.330665
0.4182
0.365842
0.421006
0.363039
0.404644
0.36998
0.416478
0.405138
0.431315
0.45286
0.439614
0.478207
0.447085
0.483957
0.443205
0.474334
0.432157
0.453011
0.437368
0.452572
0.43193
0.431935
0.411076
0.437366
0.412245
0.438991
0.417786
0.444569
0.42719
0.430577
0.415516
0.414599
0.410583
0.398586
0.408916
0.40501
0.407974
0.407551
0.431235
0.446856
0.435136
0.442988
0.425711
0.420175
0.427692
0.397955
0.422004
0.367525
0.431161
0.361011
0.470418
0.384402
0.444475
0.232001
0.215955
0.100071
0.386326
0.127857
0.143685
0.110717
0.119693
0.10943
0.0920081
0.0728421
0.0534557
0.0263878
0.0154867
0.0201718
0.0139219
0.0140928
0.0133029
0.0140653
0.0135759
0.0143921
0.0139757
0.0142218
0.0144321
0.0173906
0.0198685
0.0180264
0.0319843
0.0249881
0.0291042
0.0255229
0.0326393
0.0289002
0.0310962
0.0287321
0.0347606
0.0354566
0.0426385
0.0384403
0.0472961
0.0383674
0.0431274
0.0362956
0.0336035
0.0202511
0.0243773
0.0190877
0.029256
0.0350155
0.0808483
0.100525
0.183979
0.131877
0.896612
0.873377
0.802029
0.76215
0.782989
0.732552
0.735345
0.441732
0.485538
0.510123
0.587051
0.645726
0.721149
0.687768
0.696559
0.658817
0.682802
0.537561
0.581003
0.554919
0.605949
0.527348
0.52008
0.433586
0.483832
0.444919
0.41782
0.397334
0.431866
0.500468
0.876878
0.887697
0.843205
0.886716
0.829212
0.748248
0.71475
0.610503
0.586785
0.586597
0.543703
0.51946
0.458172
0.453536
0.297281
0.267976
0.310685
0.28349
0.321432
0.289098
0.327889
0.302196
0.307868
0.311442
0.332114
0.316661
0.368345
0.310364
0.375868
0.299563
0.379097
0.308283
0.37592
0.320366
0.405686
0.337384
0.405371
0.356945
0.423233
0.364171
0.488321
0.37203
0.475755
0.398569
0.470049
0.417586
0.460667
0.423513
0.451449
0.42503
0.474423
0.467658
0.491524
0.481
0.473146
0.481942
0.477849
0.486602
0.44691
0.473811
0.431284
0.473262
0.413717
0.441235
0.434761
0.491421
0.439446
0.479531
0.461963
0.495465
0.460974
0.505575
0.45824
0.492339
0.456468
0.47791
0.446147
0.448866
0.415794
0.433128
0.418821
0.389233
0.454729
0.407487
0.455473
0.367988
0.446963
0.373143
0.242792
0.167664
0.200558
0.136481
0.20158
0.14648
0.191656
0.106975
0.140956
0.0684643
0.105291
0.0478399
0.0693968
0.0194834
0.240473
0.031626
0.0182912
0.017493
0.0147864
0.0121468
0.0146759
0.0167143
0.012115
0.0170409
0.0142644
0.0143089
0.0199187
0.0128326
0.0124226
0.013209
0.0154782
0.0161715
0.013213
0.0140585
0.0136226
0.0137392
0.0137608
0.0165579
0.02156
0.0228717
0.0298598
0.0272412
0.0354551
0.031148
0.0436828
0.040763
0.0517081
0.0466111
0.0526571
0.0543225
0.0622115
0.0659223
0.102625
0.0835278
0.100945
0.0853946
0.120622
0.139752
0.206201
0.249043
0.297727
0.280953
0.847609
0.871412
0.633557
0.722485
0.722845
0.7377
0.591708
0.403531
0.43425
0.438218
0.490185
0.532196
0.548487
0.525918
0.573456
0.547633
0.587837
0.588781
0.558758
0.558207
0.509863
0.488391
0.530321
0.489269
0.501767
0.427083
0.44834
0.529268
0.911663
0.93133
0.87199
0.87478
0.790099
0.71468
0.729216
0.656485
0.614504
0.602799
0.565144
0.533167
0.499285
0.485521
0.27938
0.265255
0.302196
0.284173
0.32188
0.288056
0.327491
0.286134
0.336789
0.291501
0.354655
0.300397
0.361404
0.296138
0.371269
0.304737
0.384484
0.319244
0.390798
0.336339
0.395659
0.33492
0.388185
0.333448
0.400819
0.338985
0.397445
0.317238
0.437651
0.338464
0.445039
0.381307
0.441545
0.388793
0.455511
0.366144
0.443567
0.376678
0.465836
0.422207
0.493745
0.481347
0.468444
0.502575
0.446331
0.520468
0.448981
0.291723
0.359595
0.527905
0.450809
0.500291
0.473017
0.526864
0.476413
0.535034
0.457172
0.528088
0.396094
0.489069
0.387137
0.448202
0.393966
0.43702
0.346606
0.277248
0.307849
0.207752
0.26438
0.192188
0.230183
0.177315
0.20324
0.163418
0.139507
0.145749
0.129821
0.108355
0.100942
0.0838311
0.0764862
0.0366381
0.0541929
0.0136169
0.0235227
0.0100934
0.0125814
0.0100723
0.0127172
0.0102973
0.0156396
0.0129249
0.0274186
0.0108612
0.0106622
0.010678
0.010671
0.0107311
0.0133303
0.0160979
0.0134465
0.0108543
0.0146051
0.0111515
0.0113294
0.0115344
0.011737
0.0119714
0.0122801
0.0152377
0.0166494
0.0127675
0.01286
0.0129206
0.0129346
0.0175795
0.0199037
0.0232842
0.0258064
0.0262339
0.0346386
0.034148
0.0489027
0.0464225
0.0547725
0.0456102
0.0553582
0.0491674
0.0655461
0.086561
0.126286
0.13641
0.190921
0.200482
0.294172
0.317456
0.382111
0.342477
0.838667
0.893973
0.517928
0.730137
0.719384
0.736612
0.560895
0.539349
0.53986
0.485268
0.476195
0.406526
0.404242
0.380138
0.481083
0.473091
0.500711
0.467245
0.498579
0.469292
0.520837
0.512292
0.534068
0.447022
0.466578
0.523843
0.878292
0.915083
0.878974
0.867182
0.80328
0.726237
0.735958
0.698658
0.64029
0.612734
0.596428
0.550087
0.536359
0.489298
0.4777
0.490452
0.311604
0.278109
0.323646
0.28847
0.343306
0.295257
0.369433
0.295644
0.356893
0.278272
0.375679
0.278885
0.404412
0.303427
0.42065
0.312437
0.40374
0.288321
0.403147
0.272166
0.380133
0.276984
0.377077
0.260993
0.368599
0.255885
0.35679
0.303295
0.324255
0.279763
0.439563
0.318048
0.448198
0.331846
0.46679
0.343433
0.459965
0.367615
0.466584
0.410561
0.555904
0.525481
0.706865
0.989836
0.713309
0.438856
0.450423
0.401374
0.436378
0.350989
0.467439
0.464101
0.653831
0.419843
0.430596
0.268626
0.320997
0.22383
0.280808
0.193391
0.258761
0.158651
0.180348
0.101011
0.156099
0.0832895
0.116612
0.0481486
0.101446
0.0434538
0.0771821
0.0347047
0.042301
0.0304105
0.0377569
0.0246969
0.0253526
0.0222785
0.0183913
0.0176073
0.0164637
0.00836686
0.00833682
0.00832519
0.00877143
0.00849853
0.00857796
0.00971579
0.00878066
0.00894271
0.0116869
0.0135559
0.0185461
0.0152598
0.0141659
0.0120544
0.0122713
0.0151068
0.00972986
0.00979631
0.00986699
0.00998086
0.0101451
0.0102878
0.0104649
0.0106506
0.0108737
0.0111017
0.0113553
0.0115074
0.0117077
0.0146553
0.0118718
0.0119201
0.0120465
0.0120121
0.0153369
0.0156216
0.0171542
0.0227458
0.0243336
0.0287807
0.0324746
0.0378868
0.047222
0.0444607
0.0600999
0.0508541
0.0615545
0.0518463
0.0825421
0.10018
0.194308
0.216407
0.281734
0.356832
0.394731
0.383494
0.816008
0.776776
0.592367
0.684852
0.678726
0.661487
0.539851
0.497227
0.530516
0.465819
0.507839
0.461976
0.532126
0.4976
0.524774
0.488226
0.514422
0.512551
0.561491
0.502764
0.462989
0.437251
0.47373
0.523209
0.859264
0.858321
0.827979
0.845503
0.783899
0.741177
0.748185
0.712627
0.643089
0.615098
0.583934
0.586707
0.536803
0.515575
0.472056
0.484223
0.484878
0.31072
0.35233
0.285797
0.375014
0.28815
0.4042
0.278992
0.393641
0.292578
0.406678
0.277998
0.4011
0.274703
0.412028
0.266914
0.399224
0.232017
0.369974
0.242094
0.361133
0.253651
0.359001
0.24429
0.353975
0.250442
0.333869
0.329749
0.337516
0.219792
0.289336
0.240617
0.297571
0.238884
0.286412
0.235183
0.286135
0.230215
0.29367
0.221972
0.298028
0.198321
0.28994
0.185804
0.270267
0.176186
0.259447
0.194294
0.234784
0.117087
0.209472
0.115417
0.203732
0.113188
0.182913
0.0963963
0.171816