/*--------------------------------*- C++ -*----------------------------------*\
| =========                 |                                                 |
| \\      /  F ield         | OpenFOAM: The Open Source CFD Toolbox           |
|  \\    /   O peration     | Version:  2312                                  |
|   \\  /    A nd           | Website:  www.openfoam.com                      |
|    \\/     M anipulation  |                                                 |
\*---------------------------------------------------------------------------*/
FoamFile
{
    version     2.0;
    format      ascii;
    arch        "LSB;label=32;scalar=64";
    class       volScalarField;
    location    "0.2";
    object      DwMean;
}
// * * * * * * * * * * * * * * * * * * * * * * * * * * * * * * * * * * * * * //

dimensions      [0 0 -2 0 0 0 0];

internalField   nonuniform List<scalar> 
12225
(
1.08925e+08
1.75479e+08
6.43135e+08
6.33598e+08
5.07547e+08
3.68762e+08
3.01061e+08
2.69942e+08
2.56626e+08
2.51428e+08
2.48811e+08
2.47317e+08
2.45856e+08
2.44739e+08
2.44572e+08
2.43745e+08
2.47084e+08
2.42838e+08
655427
7.26953e+06
8.94266e+07
1.38177e+08
1.23859e+08
1.04729e+08
8.78598e+07
7.65643e+07
6.89058e+07
6.36503e+07
5.99012e+07
5.70177e+07
5.46907e+07
5.27531e+07
5.10111e+07
4.98139e+07
4.81375e+07
4.77334e+07
26141.5
181227
3.25615e+06
1.78915e+07
2.81959e+07
3.12603e+07
3.07956e+07
2.94754e+07
2.74781e+07
2.54668e+07
2.37006e+07
2.24129e+07
2.14295e+07
2.06613e+07
1.99208e+07
1.94236e+07
1.86867e+07
1.8361e+07
15451.9
26368.4
149351
936849
2.75099e+06
4.42125e+06
5.65026e+06
6.55071e+06
7.17741e+06
7.62883e+06
7.95267e+06
8.2051e+06
8.40899e+06
8.5717e+06
8.67867e+06
8.76074e+06
8.75239e+06
8.80833e+06
14715.6
16221.8
25242.8
59568.8
204070
422413
636452
861938
1.04963e+06
1.25357e+06
1.41349e+06
1.60138e+06
1.74087e+06
1.91758e+06
2.02859e+06
2.18411e+06
2.25448e+06
2.40432e+06
14686.9
14931
16068.3
19734.5
30579.5
54137.9
77531.6
105856
129730
159173
181393
210710
230733
263344
287722
330985
354166
402333
14713.6
14746.4
14923.8
15470.3
16888.1
20389.5
24710.3
30319.7
34995.4
41003
45570.6
51650.4
55827.7
61879.5
65829.4
72521.7
76109.8
83825.6
14700.6
14697.4
14716.9
14819.3
15048.8
15621
16496.2
17937.9
19178.5
20867.4
22192.4
23949.9
25232.4
26975.9
28130.5
29883
30823.2
32744.4
14676.9
14657.4
14630.9
14644.7
14687.5
14778
14916.1
15196.4
15495.7
15953.4
16345.8
16890.4
17315.7
17895
18303.1
18902.4
19238
19894.3
14672.2
14651.5
14602.4
14573.4
14559.7
14550.5
14540.3
14549
14573
14632.1
14704.1
14814.5
14921.9
15070.7
15193.4
15370.8
15481.1
15694.8
14671.2
14643.4
14577.5
14521.1
14477.1
14435.1
14387.7
14338.2
14290
14249.4
14215.8
14193.3
14178.1
14174.2
14174.7
14187.6
14193.8
14231.6
14655.9
14623.9
14549.1
14476.9
14414.5
14355.2
14293.2
14228.4
14162.7
14099.4
14038.7
13983.1
13931
13885.6
13842.2
13807.9
13769.6
13750
14635.3
14597
14516.8
14434.8
14359.7
14288.2
14216.4
14143.6
14070.4
13999.2
13929.5
13863.7
13799.4
13740.5
13681.7
13630.6
13576
13533.7
14609.1
14564.8
14481.8
14392.6
14307.2
14225.4
14144.8
14064.9
13986.1
13909.7
13835.3
13764.5
13695.2
13630.6
13566.5
13508.4
13448.6
13397.2
14574.7
14519
14430.9
14336.5
14244.2
14155.4
14069.1
13984.9
13902.6
13823
13745.8
13672.1
13600.3
13532.7
13466.3
13404.8
13343
13287.8
14558.3
14492
14395.5
14293.7
14194.4
14099.4
14007.9
13919.7
13834.1
13751.9
13672.3
13596.2
13522.5
13452.7
13384.7
13320.9
13257.9
13200.1
14540.6
14467.3
14367.9
14264
14162.1
14064
13969.6
13878.6
13790.7
13706.2
13624.6
13546.4
13471
13399.1
13329.6
13263.7
13199.7
13139.7
14538.2
14453.9
14347.7
14239
14132.9
14031.3
13934
13840.7
13751.2
13665.2
13582.5
13503.1
13427
13354
13284.1
13217.2
13153.1
13092
14524.5
14436.5
14328.4
14219.1
14113.4
14012.4
13916.1
13823.9
13735.6
13650.6
13568.9
13490.2
13414.8
13342.4
13273.1
13206.6
13143.2
13082.1
14532.9
14454
14350.6
14243.9
14140.6
14042.7
13949.8
13861.1
13775.9
13693.6
13614.1
13537.1
13463.3
13392
13323.9
13258.2
13195.9
13135.4
14547.6
14478.6
14382.8
14281.8
14183.7
14091.6
14005.1
13922.7
13843
13765.1
13689.1
13614.9
13543.5
13474.3
13408.4
13344.6
13284.5
13225.7
14556.5
14493.3
14401
14305
14214.3
14132
14057
13986.1
13917.2
13848.9
13782.1
13716.9
13655.3
13596.4
13542.3
13490.4
13445
13398.9
14571.1
14516.4
14431.2
14341.6
14262.2
14198
14148
14104.7
14069.8
14039.1
14021.2
14011.4
14016.4
14029.4
14057.9
14088.6
14140.8
14177.8
14581.7
14530.8
14448.5
14371.3
14325.7
14326.2
14384.5
14492.8
14718.6
14975.8
15378.3
15742.4
16250.5
16677
17249.8
17701.9
18317.6
18767.7
14602.3
14560.8
14504.4
14532
14685.3
15088.7
16083.4
17524.9
20133.4
22759.8
26149.5
29153.6
32877.4
35975.8
39875.3
42928.6
46934.5
49846.3
14608.5
14687.7
14968.6
15743.5
17775.2
22901.3
35512.7
54847
85562.4
116289
151644
183112
219435
249871
286362
315326
351706
378918
14708
16205
19581.1
28228.9
58734.9
185420
501397
907838
1.30098e+06
1.63132e+06
1.92291e+06
2.15742e+06
2.37634e+06
2.54719e+06
2.72156e+06
2.85029e+06
2.9962e+06
3.09297e+06
17698.9
41578.7
90350.2
302498
1.39213e+06
5.58271e+06
1.00048e+07
1.28504e+07
1.41669e+07
1.45571e+07
1.44866e+07
1.42754e+07
1.39471e+07
1.3583e+07
1.32195e+07
1.28414e+07
1.24859e+07
1.20999e+07
172855
1.46715e+06
4.16967e+06
1.07266e+07
4.38036e+07
7.66775e+07
7.14205e+07
6.60565e+07
5.73177e+07
5.04829e+07
4.53862e+07
4.16631e+07
3.89266e+07
3.68591e+07
3.52672e+07
3.39668e+07
3.29382e+07
3.19835e+07
4.15038e+07
5.95889e+07
8.54502e+07
1.39534e+08
3.41418e+08
3.63264e+08
3.20918e+08
2.43196e+08
1.92326e+08
1.6349e+08
1.48529e+08
1.4093e+08
1.37053e+08
1.35065e+08
1.33763e+08
1.32841e+08
1.31822e+08
1.3096e+08
9.85553e+06
474298
475458
477290
480334
484329
488768
493278
497601
501556
505047
507994
510404
512096
513252
514000
514240
513966
513218
512077
510672
509171
507756
506610
505922
505743
506317
507602
509727
513284
518516
524574
530753
536746
542487
548031
553481
558953
564550
570359
576453
582865
589557
596312
602754
608039
611690
614022
615165
615860
617082
619000
622094
627895
641941
671356
719225
788618
879447
986588
1.10599e+06
1.23498e+06
1.37151e+06
1.5139e+06
1.66082e+06
1.81118e+06
1.9641e+06
2.11887e+06
2.27488e+06
2.43162e+06
2.58864e+06
2.74549e+06
2.90172e+06
3.05696e+06
3.21088e+06
3.36331e+06
3.51402e+06
3.66284e+06
3.80963e+06
3.95422e+06
4.09649e+06
4.23634e+06
4.37366e+06
4.50837e+06
4.64037e+06
4.76959e+06
4.89592e+06
5.01925e+06
5.13947e+06
5.25647e+06
5.37013e+06
5.48034e+06
5.58696e+06
5.68988e+06
5.78897e+06
5.8841e+06
5.97515e+06
6.06199e+06
6.1445e+06
6.22255e+06
6.296e+06
6.36474e+06
6.42865e+06
6.48763e+06
6.54159e+06
6.59046e+06
6.63414e+06
6.6727e+06
6.70615e+06
6.73432e+06
6.75727e+06
6.7752e+06
6.78815e+06
6.79594e+06
6.79883e+06
6.79669e+06
6.78976e+06
6.77799e+06
6.76145e+06
6.74024e+06
6.71443e+06
6.68413e+06
6.64943e+06
6.61044e+06
6.56729e+06
6.52011e+06
6.46902e+06
6.41419e+06
6.35575e+06
6.29386e+06
6.22871e+06
6.16045e+06
6.08927e+06
6.01534e+06
5.93886e+06
5.86003e+06
5.77904e+06
5.69609e+06
5.61138e+06
5.52512e+06
5.43751e+06
5.34877e+06
5.2591e+06
5.16872e+06
5.07782e+06
4.98661e+06
4.89527e+06
4.80401e+06
4.71301e+06
4.62244e+06
4.53247e+06
4.44326e+06
4.35495e+06
4.26768e+06
4.18159e+06
4.09678e+06
4.01336e+06
3.93142e+06
3.85112e+06
3.77293e+06
3.69887e+06
3.63206e+06
3.57205e+06
3.5174e+06
3.46819e+06
3.42533e+06
3.38918e+06
3.36084e+06
3.33909e+06
3.32549e+06
3.32382e+06
3.34518e+06
3.39698e+06
3.46116e+06
3.52686e+06
3.58818e+06
3.65279e+06
3.68886e+06
3.74876e+06
3.58619e+06
9.85568e+06
337400
74161.8
42361.1
31563.5
25786.4
22133.1
19912.9
18666.1
18106.1
17997.1
18212.6
18694.6
19379.9
20197
21451.1
23362.6
25869.3
28814.1
31948.3
34967.2
37527.1
39193.9
39481.1
38536.2
35950
31820.1
27658.9
24629.9
23494.9
23843.1
25241.5
27324.8
29764
32448.9
35352.7
38514.8
42023.5
46004.9
50611.4
56010.3
62373.3
69882.2
78761.4
89372.5
102377
118777
139025
162498
188030
213851
237912
258585
275015
287502
297226
305643
313943
322582
331361
340080
348664
357088
365345
373436
381369
389158
396808
404316
411680
418890
425937
432806
439487
445976
452278
458393
464322
470064
475620
480990
486172
491166
495971
500583
505000
509214
513220
517009
520576
523913
527016
529878
532493
534860
536973
538836
540448
541809
542916
543770
544388
544800
545028
545112
545076
544934
544666
544278
543757
543116
542359
541480
540450
539249
537855
536248
534429
532406
530187
527780
525190
522429
519504
516418
513181
509800
506283
502637
498872
494995
491014
486938
482774
478532
474220
469845
465417
460942
456430
451888
447324
442748
438165
433583
429011
424453
419918
415411
410939
406507
402121
397786
393508
389290
385137
381056
377053
373153
369403
365908
362807
360100
357729
355691
354032
352795
352042
351757
352011
353034
355453
359643
364991
370819
376919
383613
390430
398663
415280
9.8557e+06
432862
104145
47512.4
27443.5
17720.1
12665.2
9834.28
8174.93
7184.7
6602.56
6294.86
6189.17
6217.3
6361.98
6645.64
7081.3
7670.74
8408
9269.52
10208.6
11150.5
11986.6
12560.2
12777.9
12636.8
12100.9
11478.3
11121.6
11259.7
11920
13038.8
14566.9
16488.8
18824.3
21627.2
24975.5
28966.2
33708.8
39319
45886.9
53409.7
61776.8
70762.2
80023.8
89431.6
98721.9
107461
115141
121370
126108
129703
132234
133829
134654
134984
134979
134657
134293
133938
133678
133539
133537
133681
133952
134340
134835
135433
136114
136866
137678
138537
139437
140368
141324
142302
143295
144300
145312
146328
147345
148358
149365
150363
151348
152316
153266
154193
155095
155970
156815
157628
158408
159153
159862
160534
161170
161769
162332
162861
163360
163831
164277
164699
165100
165479
165834
166161
166459
166726
166960
167162
167329
167458
167546
167593
167596
167557
167477
167355
167192
166991
166750
166472
166158
165808
165424
165005
164554
164071
163558
163016
162446
161850
161227
160581
159912
159222
158511
157782
157035
156272
155495
154704
153902
153089
152267
151438
150601
149760
148914
148066
147215
146365
145516
144669
143827
142993
142174
141383
140637
139958
139352
138814
138340
137940
137623
137402
137283
137278
137434
137867
138646
139714
140958
142379
143966
145979
148388
155498
9.85649e+06
549503
119408
47038.8
23919.2
14437.4
9893.38
7461.33
6058.6
5216.19
4708
4410.67
4259.57
4220.2
4263.19
4391.22
4610.66
4917.06
5310.77
5788.65
6339
6936.99
7540.73
8092.83
8542.66
8876.81
9126.61
9403.36
9853.97
10591.1
11677.4
13132.9
14987.9
17271.9
20022.2
23288.8
27096.1
31432.3
36234.7
41425.6
46874.5
52344
57561.9
62383.2
66685.4
70212
72828.2
74578.7
75746.5
76523.9
76976.4
77159
77141.5
76883.6
76492.3
75998.6
75450.9
74889.1
74371
73922.8
73568.5
73307.5
73144.7
73078.7
73101.1
73204.1
73375
73610.8
73905.4
74248.6
74634.6
75058
75514.1
75999.2
76509.7
77042.1
77593.2
78160.2
78740.3
79331.1
79930.1
80535
81143.6
81753.9
82363.7
82971.3
83574.9
84172.9
84763.8
85346.5
85919.8
86482.6
87034.1
87573.6
88100.4
88614.2
89114.9
89602.6
90077.7
90540.6
90991.2
91429.9
91856.4
92270.6
92671.9
93059.5
93432.1
93788.7
94128.8
94451.6
94756.7
95043.5
95311.1
95558.8
95785.8
95991.9
96176.8
96340.5
96483.1
96604.6
96705.1
96785
96844.3
96883.3
96902.1
96901
96880.2
96840.3
96781.2
96703.4
96607.3
96493.3
96361.7
96213
96047.5
95865.9
95668.6
95456.1
95228.9
94987.5
94732.4
94464.3
94183.8
93891.3
93587.5
93273
92948.3
92613.9
92270.5
91918.6
91558.7
91191.6
90817.7
90437.8
90052.5
89662.7
89269.5
88874.4
88480.8
88093
87716.7
87358.6
87020.9
86703.9
86407.1
86132.7
85884.8
85667.6
85485.4
85343.4
85257.7
85262.5
85386.5
85621.6
85942.2
86367.5
86880.1
87638
88687.7
91865
9.86072e+06
599465
110531
36754.4
17623.5
10728.7
7594.81
5930.13
4955.24
4353.39
3978.25
3753.87
3638.6
3609.18
3648.33
3756.94
3937.47
4189.56
4516.24
4918.89
5394.59
5933.18
6515.38
7116.58
7714.71
8304.52
8923.87
9637.62
10537.6
11706.6
13204.6
15079
17348.3
20004.8
23009.7
26281.8
29730.6
33284.8
36881.5
40339.2
43438
46097.8
48253.3
49824
50850.6
51499.3
51888.9
52100.9
52171.7
52133.8
52017.1
51833.5
51601.2
51331.5
51050
50769.1
50507.7
50282.9
50106.4
49984.5
49924
49925.1
49986.7
50102
50268.4
50484.5
50743.2
51041
51373.6
51737
52127.9
52543.4
52980.7
53437.6
53911.6
54400.7
54902.8
55416
55938.6
56468.7
57004.7
57545.1
58088.3
58632.9
59177.6
59721.3
60262.6
60800.8
61334.7
61863.7
62386.9
62903.6
63413.3
63915.3
64409.1
64894.5
65371.1
65838.7
66297.4
66746.6
67186.4
67616.4
68036.2
68445.3
68843.3
69229.4
69603.1
69963.8
70311.1
70644.5
70963.6
71268
71557.2
71830.7
72088.3
72329.7
72554.7
72763.3
72955.3
73130.8
73289.6
73431.9
73557.7
73667
73759.8
73836
73896.1
73940.3
73968.6
73981.1
73978
73959.6
73926
73877.6
73814.6
73737.2
73645.9
73540.9
73422.6
73291.2
73147.1
72990.8
72822.7
72643.1
72452.4
72251
72039.3
71817.8
71586.7
71346.5
71097.5
70840.3
70575.2
70302.7
70023.3
69737.5
69446.1
69150
68850.9
68550.7
68252
67957.3
67668
67384.7
67107.7
66837.9
66577.1
66327.7
66092.1
65873.7
65679.3
65523.4
65419.3
65370.1
65369.9
65434.8
65560.5
65830
66317.6
67828.5
9.87027e+06
557641
85721.1
27424
13651.5
8684.73
6374.55
5125.2
4386.62
3930.31
3647.59
3484.24
3411.27
3412.37
3479.4
3611.77
3809.91
4076.67
4416.09
4831.76
5324.85
5892.49
6527.89
7222.47
7972.64
8788.52
9703.08
10767.7
12031.5
13538.6
15313.8
17354.3
19623.4
22050.4
24561.4
27101
29612.9
31959
33974.9
35594.7
36812.3
37649.5
38205.9
38563.6
38778.4
38891.3
38924.4
38906.7
38852.8
38775.3
38682
38580.3
38478.6
38385
38307.7
38253.8
38231.4
38245.1
38300.4
38396.3
38533.8
38714.7
38935.4
39193.5
39486.6
39812.2
40167.3
40549.2
40955.5
41383.9
41832.1
42298.3
42780.6
43277.4
43787
44307.7
44838.2
45376.9
45922.5
46473.5
47028.7
47586.8
48146.6
48706.9
49266.6
49824.9
50380.8
50933.5
51482.3
52026.6
52565.7
53099
53626.1
54146.3
54659.2
55164.4
55661.7
56150.7
56630.9
57102.1
57563.9
58015.8
58457.3
58888.1
59307.4
59714.8
60109.9
60492.2
60861.2
61216.6
61558
61884.8
62196.9
62493.8
62775.2
63040.9
63290.8
63524.7
63742.5
63944.1
64129.4
64298.4
64451
64587.4
64707.5
64811.1
64898.4
64969.9
65025.8
65065.8
65090.1
65099
65092.6
65071.3
65035.2
64984.6
64919.7
64840.9
64748.5
64642.7
64523.8
64392.4
64248.6
64093
63925.7
63747.3
63558.1
63358.3
63148.5
62928.9
62699.9
62461.9
62215.3
61960.5
61698
61428.2
61151.6
60868.9
60581
60289
59994.2
59697.7
59400.6
59103.4
58806.3
58509.9
58215.4
57924
57637.4
57357.6
57088.3
56836.9
56610.6
56414.5
56248.6
56125.5
56049.1
56068.7
56236.1
56913.2
9.88356e+06
465134
66034
21969.5
11496.3
7599.49
5741.86
4722.95
4117.32
3747.71
3529.74
3418.98
3390.94
3432.94
3540.06
3711.87
3950.89
4261.7
4649.57
5119.22
5673.67
6313.49
7037.29
7843.74
8735.59
9724.1
10830.3
12078.5
13485.9
15054.2
16763.3
18570
20432.6
22321.6
24170.6
25860.3
27281.9
28396.2
29221
29811.5
30230.3
30514.1
30698.4
30815.7
30886.6
30926.2
30946.1
30956
30962
30969.1
30981.6
31004
31041.1
31097.4
31176.9
31282.6
31419.3
31588.8
31792.6
32030.6
32302.6
32607.9
32944.7
33311.2
33705.6
34125.8
34569.8
35035.9
35522.1
36026.9
36548.4
37085.2
37635.8
38198.7
38772.5
39355.9
39947.6
40546.2
41150.4
41759.1
42371
42985
43599.8
44214.4
44827.7
45438.8
46047
46651.5
47251.5
47846.6
48436.1
49019.5
49596.4
50166.2
50728.7
51283.6
51830.3
52368.4
52897.4
53416.8
53925.9
54424.1
54910.7
55385.2
55846.8
56295.1
56729.5
57149.6
57554.8
57944.8
58319.1
58677.6
59019.8
59345.4
59654.2
59946
60220.6
60477.8
60717.6
60939.7
61144.2
61331.1
61500.2
61651.8
61785.6
61901.7
62000.2
62081.5
62145.9
62193.3
62223.8
62237.5
62234.9
62216.1
62181.3
62131
62065.3
61984.6
61889.2
61779.4
61655.5
61517.8
61366.5
61202.1
61024.8
60835
60633.3
60420
60195.6
59960.5
59715.1
59459.9
59195.4
58922.1
58640.2
58350.3
58052.9
57748.4
57437.5
57120.9
56799.5
56473.9
56144.9
55812.8
55477.9
55140.7
54801.5
54461.1
54120.5
53781.2
53445.6
53117.6
52802.2
52503.9
52225.1
51975.2
51758
51606.3
51563.1
51768.9
9.89706e+06
377941
53726.4
18986.3
10372.5
7054.41
5442.44
4551.43
4029.55
3723.35
3558.49
3493.42
3508.94
3594.59
3747.46
3968.34
4260.38
4628.27
5077
5610.92
6232.71
6942.95
7740.38
8623.28
9591.47
10647.5
11794.8
13032.3
14348.4
15723.3
17140.4
18586.2
19998.3
21277.3
22356.9
23222.4
23891
24398.7
24779.7
25056.3
25256.6
25403.6
25516.6
25608.7
25689.2
25764.5
25840.3
25920.5
26008.3
26107
26219.4
26348.5
26497.2
26668.4
26864.7
27088.4
27341.6
27625.4
27940.5
28286.9
28664.1
29071.3
29507
29969.9
30458.3
30970.7
31505.3
32060.7
32635.3
33227.7
33836.4
34459.8
35096.6
35745.2
36404.4
37072.8
37749.1
38432
39120.1
39812.2
40507.2
41203.9
41901
42597.2
43291.3
43982.5
44669.9
45352.7
46030.1
46701.5
47366.4
48024.2
48674.3
49316.4
49950
50574.3
51188.9
51793.1
52386.2
52967.5
53536.4
54092.1
54634
55161.5
55674
56171.1
56652.1
57116.7
57564.4
57994.7
58407.3
58801.6
59177.5
59534.6
59872.5
60191.1
60490.2
60769.5
61029
61268.6
61488.2
61687.7
61867.2
62026.8
62166.2
62285.7
62385.4
62465.7
62526.8
62568.8
62591.8
62596
62581.9
62549.8
62499.8
62432.4
62348
62246.8
62129.4
61996
61847.1
61683.1
61504.4
61311.4
61104.7
60884.6
60651.7
60406.3
60149
59880.2
59600.3
59309.9
59009.4
58699.3
58380.1
58052.2
57716.1
57372.4
57021.4
56663.8
56300.1
55930.9
55556.5
55177.4
54793.8
54406.1
54014.7
53620.3
53223.6
52825.6
52428.1
52033.6
51645.5
51267.3
50901.5
50554.9
50231.1
49951.6
49741.8
49663
9.90844e+06
317154
47611.7
17615.2
9854.4
6818.07
5337.48
4528.66
4066.09
3809.72
3687.67
3663.77
3721.5
3851.51
4051.82
4323.23
4668.51
5091.44
5594.79
6180.46
6848.16
7595.26
8416.74
9306.06
10256.1
11259.2
12304.8
13384.8
14497.2
15630.1
16735.1
17740.1
18610.9
19342.8
19942.6
20423.5
20800.9
21093.3
21321.6
21503.8
21655.9
21790.2
21915.8
22039.1
22164.7
22296.1
22436.3
22588
22753.4
22934.8
23134.5
23354.7
23597.7
23865.6
24160.3
24483.3
24836.1
25219.4
25633.7
26079
26555.2
27061.5
27596.6
28159.1
28747.4
29360.1
29995.6
30652.3
31328.7
32023.9
32736.7
33464.8
34206.7
34961
35726.2
36500.8
37283.6
38073.2
38868
39666.5
40466.9
41267
42066.4
42865
43661.5
44455
45244.2
46028.3
46806.3
47577.4
48340.8
49095.7
49841.4
50577
51301.8
52015
52715.8
53403.4
54077.2
54736.3
55380.2
56008.2
56619.6
57213.8
57790.1
58347.9
58886.7
59406
59905.2
60383.9
60841.6
61277.9
61692.4
62084.8
62454.8
62802.1
63126.5
63427.9
63706.1
63961.1
64192.7
64401.1
64586.1
64747.9
64886.5
65002.1
65094.8
65165.2
65213.2
65239.4
65243.9
65226.9
65189
65130.5
65051.8
64953.3
64835.6
64699
64544
64371.2
64181
63973.9
63750.5
63511.1
63256.5
62987.2
62703.7
62406.5
62096.2
61773.3
61438.4
61092
60734.7
60367.1
59989.7
59603
59207.6
58804.1
58392.9
57974.5
57549.4
57118.1
56680.9
56238.2
55790.2
55337.2
54879.6
54417.8
53952.5
53484.4
53014.8
52545.7
52079.3
51619.1
51167.7
50730.6
50312.1
49924.6
49592.1
49297.1
9.91758e+06
291940
45229.1
17028.3
9644.2
6754.37
5355.82
4601.36
4183.91
3968.07
3881.27
3894.86
3991.54
4162.28
4404.86
4718.97
5105.64
5567.1
6108.55
6720.19
7393.52
8125.07
8906.53
9727.59
10576.9
11449.6
12347.7
13256.9
14138.9
14952.5
15681.7
16325.9
16881.7
17350.7
17737.7
18053.9
18312.9
18529.2
18716.3
18885.7
19046.5
19205.5
19367.8
19537
19716
19907.3
20113.1
20335.3
20576.1
20837.1
21120.6
21428.2
21762.2
22124.3
22516.2
22938.7
23392.7
23878.7
24397.3
24948.3
25532
26149.4
26798
27475.6
28180.8
28912
29667.4
30445
31241.8
32053.4
32878.1
33719.4
34577
35449.7
36335.4
37232.5
38139.4
39054.8
39977.2
40905.1
41837.2
42772.8
43709.7
44645
45576.8
46503.5
47423.8
48336.4
49240.3
50134.5
51018
51889.9
52749.3
53595.4
54427.4
55244.6
56046
56830.9
57598.5
58348.1
59078.9
59790.1
60481.1
61150.9
61799.1
62424.9
63027.6
63606.7
64161.7
64691.9
65197
65676.5
66130
66557.1
66957.5
67330.9
67677.3
67996.3
68288
68552.2
68788.9
68998.3
69180.2
69334.9
69462.6
69563.5
69637.8
69686
69708.4
69705.4
69677.4
69624.7
69548
69447.8
69324.6
69178.9
69011.3
68822.4
68612.9
68383.3
68134.2
67866.2
67580
67276.2
66955.5
66618.5
66265.8
65898.2
65516.3
65120.8
64712.1
64291.1
63858.3
63414.6
62960.4
62496.5
62023.5
61542.2
61053
60556.5
60053.1
59543.3
59027.7
58506.4
57979.9
57448.2
56911.8
56370.9
55826.1
55278.2
54727.9
54176.9
53627.1
53081.1
52541.6
52012.8
51499.4
51006.7
50564.9
50086.1
9.92477e+06
284642
44210.4
16784.3
9595.42
6793.17
5446.35
4731.6
4349.62
4164.67
4108.5
4153.77
4282.59
4485.18
4757.79
5097.89
5503.67
5973.68
6508.45
7111.04
7782.12
8444.42
9135.1
9846.84
10581.6
11323.3
12041
12715
13339.7
13913.5
14430.1
14885.8
15280.8
15619.2
15908.4
16157.9
16378.2
16579.5
16770.8
16959.5
17151.3
17350.7
17561.1
17785.2
18025.5
18284.2
18563.3
18864.6
19189.7
19539.9
19917
20322.7
20759.1
21228.9
21735.1
22275.9
22851.1
23461.2
24106
24784.4
25493.7
26227.6
26991.1
27787.6
28616.5
29476.1
30364.7
31280.4
32220.5
33183.9
34169.4
35173.3
36194.2
37231.1
38280.2
39339.5
40407.8
41483.7
42565.8
43652.8
44742.9
45834
46923.7
48010.5
49092.4
50167.6
51234.2
52290.6
53335.5
54367.5
55385.5
56388.4
57375.2
58344.9
59296.5
60229.2
61141.9
62033.7
62903.9
63751.4
64575.5
65375.3
66149.9
66898.6
67620.7
68315.3
68981.8
69619.5
70227.9
70806.5
71354.6
71871.9
72358
72812.6
73235.2
73625.7
73984
74309.9
74603.4
74864.4
75093
75289.4
75453.7
75586.2
75687.1
75756.8
75795.7
75804.2
75782.8
75732.1
75652.7
75545.2
75410.1
75248.4
75060.5
74847.2
74609.4
74347.6
74062.8
73755.6
73426.7
73077.1
72707.4
72318.3
71910.8
71485.4
71043.1
70584.5
70110.5
69621.8
69119.2
68603.4
68075.1
67535.3
66984.6
66424
65854.2
65276
64690.1
64097.1
63497.7
62892.3
62281.5
61665.7
61045.2
60420.4
59791.4
59158.6
58522.3
57883.4
57242.3
56600.6
55959.5
55321.6
54689.2
54065.4
53455.7
52859
52314.7
51678.2
9.92993e+06
279847
43646.7
16700.8
9635.18
6886.71
5574.43
4889.74
4535.31
4373.65
4341.43
4410.14
4560.69
4781.76
5067.45
5412.64
5812.53
6262.29
6758.24
7299.19
7883.14
8505.74
9152.06
9750.97
10339.2
10904.7
11445.5
11956.5
12432.1
12867.9
13262.1
13614.9
13929.2
14209.8
14463.4
14697.8
14920.6
15139.4
15360.8
15590.1
15831.8
16089.1
16364.8
16661.6
16981.9
17328.2
17704.2
18113.2
18552.9
19023.8
19526.6
20062.1
20630
21227.2
21849.4
22508.3
23208.1
23949.9
24734
25560.1
26428.3
27341
28295.8
29289.7
30319.3
31382
32475.9
33599.7
34747.5
35915.6
37100.7
38298.9
39506.6
40721.2
41943.5
43173.2
44410.1
45653.8
46903.7
48158.9
49417.7
50678
51937.4
53193.4
54443.1
55684
56913.3
58128.9
59328.8
60511.3
61675.1
62818.8
63941.3
65041.4
66118
67170.1
68196.5
69196.4
70168.8
71112.7
72027.1
72911.2
73764.1
74585
75373
76127.3
76847.4
77532.5
78182
78795.4
79372.2
79912.1
80414.6
80879.5
81306.4
81695.3
82046.1
82358.7
82633.1
82869.5
83068
83228.9
83352.5
83439.2
83489.3
83503.4
83482
83425.8
83335.4
83211.5
83055
82866.6
82647.3
82398
82119.5
81812.7
81478.7
81118.3
80732.6
80322.3
79888.6
79432.4
78954.6
78456
77937.5
77400.1
76844.6
76271.9
75682.9
75078.5
74459.5
73826.7
73181.1
72523.7
71855.3
71177
70489.8
69794.5
69092
68383.1
67668.5
66949
66225.3
65497.8
64767.1
64033.4
63297.1
62558.5
61817.9
61075.9
60333.1
59590.6
58849.5
58112.2
57380.5
56657
55947.4
55246.2
54601.2
53825.9
9.93326e+06
276561
43353.9
16712.8
9719.95
7004.46
5716.44
5053.51
4719.09
4573.54
4557.15
4639.42
4799.8
5025.1
5307.26
5639.02
6013.55
6424.17
6865.14
7333.63
7833.23
8361.67
8898.57
9433.5
9935.54
10380.4
10811
11220.7
11605.7
11964.6
12297.7
12606.9
12895.6
13168.3
13430.6
13688.6
13948.7
14216.9
14499.7
14804.1
15133.2
15487.9
15870.1
16282.3
16726.1
17201.2
17703.6
18228.6
18788.1
19387.2
20028.6
20714
21445.2
22225.6
23061.1
23950
24891.5
25885.3
26930.3
28025.5
29169.6
30361.9
31599.9
32880.9
34195
35535
36894.4
38266.3
39649.5
41041.4
42438.4
43837.4
45236.1
46633.3
48030.1
49428
50828.9
52234.9
53647.6
55067.6
56494
57924.6
59356.3
60785.4
62207.6
63618.5
65014.2
66391.2
67746.7
69078.6
70385.1
71664.7
72916.1
74138
75329.3
76488.9
77615.6
78708.6
79766.7
80789
81774.6
82722.5
83631.9
84502
85331.9
86120.9
86868.4
87573.7
88236.4
88856
89432.1
89964.3
90452.4
90896.3
91295.6
91650.5
91961
92227
92448.8
92626.7
92761
92852.1
92900.5
92906.6
92871.2
92795
92678.6
92522.8
92328.6
92096.9
91828.8
91525.5
91187.9
90817.3
90414.8
89981.6
89518.8
89027.8
88509.5
87965.4
87396.4
86803.8
86188.5
85551.7
84894.2
84217.2
83521.6
82808.5
82078.7
81333.4
80573.3
79799.4
79012.8
78214.6
77405.9
76587.7
75761.3
74927.6
74087.8
73242.6
72393.2
71540.5
70685.3
69828.4
68970.4
68111.7
67252.7
66393.7
65535.1
64677.6
63821.3
62967.8
62117.4
61273
60435.4
59607.6
58794.3
57988
57241.7
56342.7
9.93504e+06
274214
43197.6
16765.5
9819.92
7126.49
5855.25
5207.26
4885.99
4750.11
4741.59
4828.09
4987.67
5205.57
5472.11
5779
6118.76
6484.64
6871.27
7278.2
7697.99
8127.56
8569.33
9019.38
9471.96
9921.56
10314.2
10673.4
11023.3
11362.8
11694.4
12022.4
12349.1
12677.9
13013.2
13359
13719.2
14096.1
14490.3
14897.9
15325.2
15783.3
16280.9
16824.6
17419.7
18070.4
18781.4
19557.4
20396.5
21298.5
22263.4
23291.9
24385.5
25548.1
26787.7
28103
29486.1
30931.8
32434.6
33986.9
35581.2
37209.1
38858.5
40517.2
42182
43846.4
45503.5
47147.8
48774.9
50381.9
51966.3
53526.8
55064.1
56580.5
58081.1
59572.5
61062
62558
64067.2
65594.2
67139.1
68698.2
70266.6
71838.2
73405.4
74960.2
76495.6
78006.1
79487.8
80938
82354.4
83735.4
85079.7
86385.9
87652.9
88879.8
90065.5
91208.9
92309.1
93365.1
94376
95341.1
96259.5
97130.5
97953.3
98727.5
99452.3
100127
100752
101327
101851
102324
102746
103117
103437
103706
103925
104093
104211
104279
104299
104269
104192
104068
103898
103682
103422
103119
102774
102387
101962
101498
100997
100461
99891.5
99289.4
98656.5
97994
97303.6
96586.5
95844.2
95078
94289.1
93478.6
92647.8
91797.8
90929.9
90045.2
89144.7
88229.3
87300.1
86358.1
85404.6
84440.6
83467.3
82485.9
81497.9
80504.2
79505.9
78504.2
77500.3
76495.5
75490.6
74486.7
73484.4
72484.6
71487.5
70493.9
69503.8
68518.3
67537.3
66562.9
65594.6
64636.2
63686.7
62751.3
61830.9
60920.9
60071.7
59065.3
9.93584e+06
272315
43098.5
16829
9918.44
7241.26
5982.08
5344.17
5030.9
4899.99
4893.38
4977.62
5129.81
5334.32
5580.85
5861.27
6168.76
6497.87
6842.03
7196.63
7565.36
7950.82
8355.3
8778.45
9217.84
9670.18
10132.2
10602.3
10997.5
11396.6
11794.9
12191.9
12596.7
13018
13463.6
13939.3
14448.6
14994.6
15580.9
16214.8
16902.9
17652
18472.1
19388.6
20424.9
21596.9
22910.3
24352.3
25906.9
27562
29307
31135
33038.3
35007.6
37030.6
39102.2
41219.2
43373.8
45556.9
47758.2
49965.9
52166.6
54346.3
56491.1
58587.7
60624
62588.7
64472.3
66267
67967.9
69573.8
71088.5
72521.1
73885.2
75205.3
76505.5
77811.2
79147.5
80532
81979.2
83487.7
85042.7
86633.3
88246.3
89867.2
91478
93065.2
94620.7
96139
97616.5
99050.9
100441
101784
103081
104329
105529
106678
107776
108822
109816
110755
111641
112472
113248
113968
114632
115240
115791
116285
116722
117102
117426
117693
117904
118058
118156
118199
118187
118120
118000
117827
117602
117325
116999
116623
116199
115729
115213
114653
114050
113407
112725
112005
111249
110458
109636
108782
107898
106988
106051
105089
104105
103099
102073
101028
99966.6
98888.9
97796.6
96690.7
95572.2
94442.3
93302.2
92153.3
90996.6
89833.4
88664.8
87491.8
86315.5
85137.3
83958.7
82780.9
81605.4
80433.3
79265.9
78104.1
76949
75800.9
74660.8
73528.6
72405.7
71291.6
70189.2
69096.7
68019.9
66954.5
65909.9
64880.1
63869.3
62915
61818.4
9.93897e+06
271064
43049.1
16895.4
10013.7
7351.38
6103.1
5473.97
5167.3
5040.19
5034.12
5115.29
5260.51
5454.48
5687.99
5954.5
6247.02
6560.45
6893.03
7243.78
7615.48
8013.47
8442.38
8903.08
9394.79
9916.77
10468.3
11049.4
11656.2
12263.2
12835.8
13445.5
14100.1
14820.8
15647.2
16595.1
17655.3
18809.8
20054.8
21385.8
22809.9
24338
25984
27759.5
29659.6
31677.3
33804.5
36032.9
38360.2
40784.2
43300.8
45904.3
48586.9
51339.1
54149.1
57005.1
59895.2
62807.3
65728.9
68647
71548.3
74417.8
77240.5
80001.2
82685.5
85280.5
87773.9
90153.2
92405.2
94516.9
96475.9
98271.6
99898.4
101357
102651
103809
104867
105887
106926
108032
109225
110509
111887
113337
114825
116308
117759
119170
120531
121839
123094
124294
125439
126527
127558
128531
129445
130300
131096
131832
132507
133123
133678
134173
134608
134982
135295
135549
135742
135876
135950
135966
135923
135823
135665
135450
135179
134854
134474
134040
133555
133018
132432
131796
131113
130383
129609
128791
127932
127032
126094
125118
124108
123064
121989
120883
119749
118588
117402
116193
114963
113713
112444
111159
109858
108544
107217
105880
104532
103176
101812
100442
99066.6
97688.1
96307.1
94924.8
93542
92160.5
90782.1
89408
88039.7
86678.5
85325.7
83982.6
82650
81329
80020.1
78724.4
77441.6
76174
74920
73684
72462
71262.8
70077.2
68921.8
67779.1
66670
65606.1
64432.8
9.95049e+06
269578
42925.4
16941.6
10105.7
7466.99
6236.45
5622.96
5330.1
5213.99
5218.36
5309.3
5463.83
5667.12
5910.78
6188.29
6497.03
6837.86
7213.82
7626.3
8085.37
8610.77
9215.66
9886.5
10614
11408.5
12281.6
13305.6
14450.9
15595.9
16767.4
17994.6
19320.3
20767.6
22345.1
24060.8
25923.1
27942.2
30129.2
32496.5
35054.4
37803.7
40736.5
43844.6
47125.7
50556.3
54110
57761.7
61488
65268
69082.2
72912.4
76740.6
80549.3
84321.9
88043.2
91699.9
95280.3
98774.7
102175
105472
108660
111732
114683
117508
120202
122763
125189
127472
129606
131580
133388
135020
136468
137735
138847
139831
140736
141611
142495
143463
144489
145586
146751
147908
149016
150064
151049
151972
152834
153633
154371
155048
155664
156218
156711
157143
157514
157824
158074
158263
158394
158465
158477
158431
158326
158164
157945
157669
157337
156950
156508
156013
155465
154864
154212
153509
152756
151955
151107
150212
149273
148289
147263
146195
145087
143941
142758
141539
140286
139000
137684
136339
134966
133567
132144
130698
129231
127744
126240
124720
123185
121636
120075
118503
116922
115332
113736
112135
110530
108923
107315
105709
104104
102502
100905
99312.2
97726.2
96147.7
94578
93018.6
91471
89936.3
88416.1
86911
85422.6
83951.2
82498.5
81064.1
79650.7
78256.1
76886.1
75534.1
74212.9
72907
71642.6
70386.8
69183.5
68008.1
66769.2
9.96566e+06
269450
42922.1
17024.9
10234.2
7629.42
6432.41
5853.41
5594.21
5511.83
5554.7
5686.75
5886.54
6144.64
6459.26
6830.02
7254.13
7754.73
8369.71
9070.99
9869.32
10871.2
12212.7
13656.1
15067.8
16511
18053.5
19734.7
21586.4
23650.8
25960.5
28535
31385.8
34521.8
37953.8
41693.9
45740.7
50083.3
54711.9
59624.3
64837.6
70302.8
75929.9
81636.2
87354.4
93042.6
98658.5
104159
109511
114688