/*--------------------------------*- C++ -*----------------------------------*\
| =========                 |                                                 |
| \\      /  F ield         | OpenFOAM: The Open Source CFD Toolbox           |
|  \\    /   O peration     | Version:  2312                                  |
|   \\  /    A nd           | Website:  www.openfoam.com                      |
|    \\/     M anipulation  |                                                 |
\*---------------------------------------------------------------------------*/
FoamFile
{
    version     2.0;
    format      ascii;
    arch        "LSB;label=32;scalar=64";
    class       volScalarField;
    location    "0.2";
    object      nutMean;
}
// * * * * * * * * * * * * * * * * * * * * * * * * * * * * * * * * * * * * * //

dimensions      [0 2 -1 0 0 0 0];

internalField   nonuniform List<scalar> 
12225
(
6.01064e-06
1.70472e-05
0.000104966
0.00010398
8.99929e-05
7.17571e-05
6.11568e-05
5.57219e-05
5.32591e-05
5.22727e-05
5.17704e-05
5.14819e-05
5.11985e-05
5.09809e-05
5.09479e-05
5.0786e-05
5.14347e-05
5.06073e-05
0.000123106
5.15964e-05
5.84887e-05
8.16115e-05
9.15952e-05
9.77676e-05
0.000103521
0.000104405
0.000105406
0.000106752
0.000107927
0.000109135
0.000110049
0.000111165
0.000111988
0.000112835
0.000114497
0.000112836
0.000387441
0.000255159
8.20261e-05
5.70105e-05
6.18212e-05
6.45176e-05
7.17449e-05
7.87522e-05
8.59605e-05
9.33101e-05
0.000100684
0.000107789
0.000113237
0.000117469
0.0001213
0.00012489
0.000128301
0.000131412
0.000506051
0.00056093
0.000292065
0.00012866
8.68407e-05
7.3954e-05
6.86469e-05
6.71795e-05
6.68183e-05
6.85517e-05
7.0231e-05
7.37423e-05
7.64714e-05
8.09475e-05
8.39145e-05
8.88378e-05
9.15395e-05
9.64343e-05
0.000527734
0.000630009
0.000450852
0.00039151
0.000255736
0.000181885
0.000149396
0.000128898
0.000116949
0.000107322
0.000101431
9.60897e-05
9.29419e-05
9.00889e-05
8.86887e-05
8.75625e-05
8.73652e-05
8.70996e-05
0.000545426
0.000689123
0.00054502
0.000479843
0.000494297
0.000457615
0.000384122
0.00032809
0.00029518
0.000264992
0.000246696
0.00022756
0.00021633
0.000202861
0.000194808
0.000183408
0.00017762
0.00016754
0.000560664
0.000731393
0.000645727
0.000547904
0.000552275
0.000635212
0.0006623
0.000603162
0.000559818
0.000515008
0.000486226
0.000454299
0.000434717
0.000410648
0.000396128
0.000375435
0.000364706
0.000345851
0.000567536
0.000752381
0.000721147
0.000642269
0.000622815
0.000688116
0.000770081
0.000774736
0.000750677
0.000717655
0.000693547
0.000665036
0.000645419
0.000621601
0.000606337
0.000585825
0.000574608
0.000555252
0.000589745
0.000785455
0.000777738
0.000725414
0.000708236
0.000750156
0.000811101
0.000834505
0.000830086
0.000816551
0.000804589
0.000789191
0.000777099
0.000761993
0.000751128
0.000736762
0.000728061
0.000713717
0.000591927
0.000784161
0.000803725
0.000784917
0.000780583
0.00080429
0.00083492
0.000849243
0.000850491
0.000847634
0.000843902
0.000838769
0.000833669
0.000827427
0.000821975
0.000815129
0.00081013
0.000802587
0.000590321
0.000792774
0.000820991
0.000820109
0.000821021
0.000832771
0.000845774
0.000852629
0.000854129
0.00085402
0.000853376
0.000852178
0.000850708
0.000848904
0.000846956
0.000844697
0.000842582
0.000839683
0.000601837
0.000801854
0.000831959
0.000838876
0.000840432
0.000845815
0.000850691
0.000853402
0.000854247
0.000854403
0.000854305
0.000854052
0.000853701
0.000853189
0.000852621
0.000851864
0.000851167
0.000850093
0.000620133
0.000809407
0.000839838
0.000846585
0.000848755
0.000850949
0.000852708
0.000853409
0.000853563
0.000853596
0.000853594
0.00085352
0.000853437
0.000853268
0.00085312
0.000852854
0.000852646
0.00085229
0.000645837
0.000813624
0.000840206
0.000847036
0.000850124
0.000851576
0.000852461
0.000852709
0.000852695
0.000852635
0.00085256
0.00085245
0.000852348
0.000852204
0.000852087
0.00085192
0.000851778
0.000851613
0.000684376
0.000826088
0.000844122
0.000849175
0.000851144
0.000851958
0.000852155
0.000852179
0.000852056
0.000851889
0.000851715
0.000851515
0.000851327
0.000851116
0.000850926
0.000850714
0.000850519
0.000850329
0.000698603
0.000837136
0.000847205
0.000849916
0.000850963
0.000851334
0.000851392
0.000851418
0.000851376
0.000851216
0.000850974
0.000850712
0.000850455
0.000850184
0.000849925
0.000849659
0.000849398
0.000849154
0.000725952
0.00084094
0.000846855
0.000849287
0.000850472
0.000851164
0.000851414
0.000851315
0.000851039
0.000850742
0.000850436
0.000850119
0.000849801
0.000849478
0.000849162
0.000848848
0.000848538
0.000848243
0.000747784
0.000848942
0.000850327
0.000850831
0.000851314
0.00085134
0.000851199
0.000850964
0.000850663
0.000850343
0.000850012
0.000849675
0.000849334
0.000848994
0.000848657
0.000848324
0.000847998
0.000847682
0.000760025
0.000847626
0.000849684
0.000851113
0.00085143
0.000851336
0.000851166
0.000850887
0.00085059
0.000850283
0.000849961
0.000849634
0.000849299
0.000848967
0.000848633
0.000848307
0.000847985
0.000847668
0.000738321
0.000843621
0.000848223
0.000850111
0.000850917
0.000851226
0.000851253
0.000851162
0.000851052
0.000850828
0.000850563
0.000850285
0.000849992
0.000849699
0.000849401
0.000849106
0.000848815
0.000848523
0.000716057
0.000835971
0.000845636
0.000849092
0.000850074
0.000850776
0.000851393
0.000851789
0.000851919
0.000851868
0.000851699
0.000851498
0.000851262
0.000851015
0.000850742
0.000850472
0.000850179
0.000849892
0.000704186
0.000832161
0.00084341
0.000847199
0.000848701
0.000849709
0.00085091
0.000852058
0.000852802
0.000853081
0.000853123
0.000852907
0.00085257
0.000852166
0.000851648
0.000851102
0.000850423
0.00084979
0.000683348
0.000823287
0.000839747
0.000844879
0.000845495
0.000844504
0.000845222
0.000849242
0.000852472
0.000852969
0.000851916
0.000850181
0.000847901
0.000845332
0.000842298
0.000839198
0.00083552
0.000832298
0.000671739
0.000823303
0.000839445
0.000840582
0.000831557
0.000815102
0.000807554
0.000822325
0.000835401
0.000832855
0.000820577
0.00080921
0.000794423
0.000782072
0.0007668
0.00075475
0.00073981
0.000728722
0.000648643
0.000813724
0.000834241
0.000828466
0.000782135
0.000721261
0.000707221
0.000733232
0.000724156
0.000683922
0.000637267
0.000602314
0.000565637
0.00053908
0.000510316
0.000490093
0.000467084
0.000451534
0.000637346
0.000805849
0.000818313
0.000780762
0.000652905
0.00057135
0.000538848
0.000456256
0.000374629
0.000324467
0.000285515
0.000260278
0.000237973
0.000222944
0.00020823
0.000198303
0.000187819
0.000180828
0.000598235
0.000770497
0.000721594
0.000603871
0.000435999
0.000265217
0.000172293
0.00013545
0.000118007
0.000108104
0.000102201
9.83625e-05
9.60687e-05
9.46496e-05
9.41227e-05
9.40348e-05
9.45711e-05
9.53521e-05
0.000551228
0.000502861
0.000347349
0.000205603
0.000113744
7.64744e-05
7.70583e-05
7.92663e-05
8.1647e-05
8.57013e-05
9.13563e-05
9.68045e-05
0.000102612
0.000108207
0.000114114
0.000119721
0.000125647
0.000131181
0.000250236
9.51404e-05
6.48698e-05
5.8485e-05
7.47915e-05
9.30037e-05
0.000114648
0.00011954
0.000127155
0.000133889
0.000137935
0.000139479
0.000141289
0.000143296
0.000145157
0.000146971
0.00014855
0.000150019
6.5817e-06
1.37569e-05
2.50009e-05
4.8196e-05
0.000139406
0.000144467
0.000134483
0.000113963
9.83265e-05
8.83093e-05
8.2669e-05
7.96639e-05
7.80899e-05
7.72719e-05
7.67316e-05
7.63474e-05
7.59199e-05
7.55571e-05
4.15855e-10
1.64493e-08
4.5139e-08
1.29565e-07
3.13993e-07
5.74305e-07
8.66841e-07
1.16057e-06
1.43502e-06
1.67654e-06
1.87855e-06
2.03575e-06
2.14962e-06
2.207e-06
2.22215e-06
2.20501e-06
2.14817e-06
2.05119e-06
1.91681e-06
1.7507e-06
1.56234e-06
1.36442e-06
1.1711e-06
9.97227e-07
8.5837e-07
7.59118e-07
7.19407e-07
7.35794e-07
8.18029e-07
1.0121e-06
1.33428e-06
1.71449e-06
2.09718e-06
2.45956e-06
2.79755e-06
3.11591e-06
3.42271e-06
3.7264e-06
4.03444e-06
4.35278e-06
4.68592e-06
5.03578e-06
5.39923e-06
5.76117e-06
6.09663e-06
6.35081e-06
6.49327e-06
6.54609e-06
6.51876e-06
6.46075e-06
6.43645e-06
6.45664e-06
6.55189e-06
6.81853e-06
7.59118e-06
9.24159e-06
1.18292e-05
1.53897e-05
1.97473e-05
2.44581e-05
2.9234e-05
3.39332e-05
3.84839e-05
4.28518e-05
4.70247e-05
5.10023e-05
5.47904e-05
5.8398e-05
6.1835e-05
6.51113e-05
6.82357e-05
7.12161e-05
7.40588e-05
7.67695e-05
7.93547e-05
8.18218e-05
8.41765e-05
8.64247e-05
8.85712e-05
9.06206e-05
9.25773e-05
9.44451e-05
9.62278e-05
9.79286e-05
9.95506e-05
0.000101096
0.000102568
0.000103968
0.000105298
0.000106558
0.00010775
0.000108876
0.000109936
0.00011093
0.00011186
0.000112726
0.000113528
0.000114267
0.000114943
0.000115555
0.000116105
0.000116591
0.000117015
0.000117376
0.000117675
0.000117912
0.000118086
0.0001182
0.000118254
0.000118248
0.000118182
0.00011806
0.000117882
0.000117647
0.000117358
0.000117014
0.000116618
0.000116169
0.000115668
0.000115117
0.000114516
0.000113865
0.000113167
0.000112422
0.000111631
0.000110796
0.000109916
0.000108995
0.000108032
0.000107029
0.000105988
0.000104909
0.000103795
0.000102647
0.000101466
0.000100253
9.90115e-05
9.77417e-05
9.64457e-05
9.51251e-05
9.37818e-05
9.24175e-05
9.10342e-05
8.96336e-05
8.82176e-05
8.67882e-05
8.53471e-05
8.38964e-05
8.24377e-05
8.09731e-05
7.95042e-05
7.80328e-05
7.65607e-05
7.50894e-05
7.36205e-05
7.21555e-05
7.06958e-05
6.92428e-05
6.77986e-05
6.63702e-05
6.49862e-05
6.36918e-05
6.24811e-05
6.13332e-05
6.02496e-05
5.92435e-05
5.83207e-05
5.74979e-05
5.67572e-05
5.61225e-05
5.5654e-05
5.55305e-05
5.58705e-05
5.63882e-05
5.69091e-05
5.73585e-05
5.78259e-05
5.79246e-05
5.83053e-05
5.57436e-05
1.01136e-09
4.41803e-08
5.90469e-07
2.63329e-06
7.17837e-06
1.3411e-05
2.03185e-05
2.69358e-05
3.26026e-05
3.69756e-05
4.00451e-05
4.18924e-05
4.26326e-05
4.23907e-05
4.15427e-05
3.97605e-05
3.69755e-05
3.3647e-05
3.01237e-05
2.66719e-05
2.34637e-05
2.06292e-05
1.82532e-05
1.65059e-05
1.54639e-05
1.53469e-05
1.62868e-05
1.8719e-05
2.35228e-05
3.08864e-05
3.92037e-05
4.62602e-05
5.15669e-05
5.55563e-05
5.86435e-05
6.11551e-05
6.33102e-05
6.52372e-05
6.69983e-05
6.86127e-05
7.00718e-05
7.13331e-05
7.22839e-05
7.27055e-05
7.22527e-05
7.04911e-05
6.73394e-05
6.33327e-05
5.95913e-05
5.70683e-05
5.63294e-05
5.7531e-05
6.06295e-05
6.56252e-05
7.24729e-05
8.08446e-05
9.01728e-05
9.99453e-05
0.000109691
0.000119206
0.000128497
0.000137556
0.000146392
0.000155012
0.000163429
0.000171653
0.000179695
0.000187567
0.000195286
0.000202867
0.000210334
0.000217704
0.000224974
0.00023211
0.000239071
0.000245867
0.000252504
0.000258989
0.000265329
0.000271528
0.000277591
0.000283519
0.00028932
0.000295001
0.000300569
0.00030604
0.000311419
0.000316713
0.000321926
0.000327059
0.000332116
0.000337098
0.000342007
0.000346846
0.000351614
0.000356313
0.000360941
0.000365499
0.000369987
0.000374408
0.000378761
0.000383039
0.000387229
0.00039132
0.000395296
0.000399148
0.000402873
0.000406478
0.000409962
0.000413331
0.000416583
0.000419722
0.000422753
0.000425693
0.000428555
0.000431352
0.000434097
0.000436791
0.000439434
0.000442027
0.000444569
0.000447062
0.000449504
0.000451897
0.000454241
0.000456539
0.000458791
0.000460997
0.000463157
0.000465272
0.000467343
0.000469371
0.000471356
0.000473299
0.000475197
0.000477055
0.000478871
0.000480643
0.000482373
0.000484057
0.000485696
0.000487289
0.000488834
0.000490331
0.000491777
0.000493171
0.000494511
0.000495793
0.000497016
0.000498177
0.000499271
0.000500296
0.000501247
0.000502119
0.000502907
0.000503604
0.000504204
0.000504695
0.000505055
0.000505247
0.000505204
0.000504844
0.000504167
0.000503208
0.000501977
0.000500455
0.000498616
0.000496432
0.000493908
0.000491012
0.000487601
0.000483272
0.000477798
0.000471548
0.000464912
0.000458205
0.000450621
0.000443825
0.000434194
0.000412
1.09272e-09
1.03594e-07
1.33235e-06
6.4591e-06
1.74874e-05
3.2861e-05
5.02648e-05
6.76677e-05
8.35257e-05
9.68946e-05
0.000107344
0.000114726
0.000119107
0.000120926
0.000120609
0.000118182
0.000113788
0.000107982
0.000101295
9.42753e-05
8.74496e-05
8.1319e-05
7.63974e-05
7.32804e-05
7.26506e-05
7.53706e-05
8.24999e-05
9.396e-05
0.000108291
0.000122739
0.000134616
0.000143049
0.000148421
0.000151479
0.000152901
0.000153172
0.000152626
0.000151472
0.000149844
0.000147823
0.000145496
0.000143015
0.000140539
0.000138243
0.000136362
0.000134978
0.000134449
0.000135332
0.00013807
0.000142983
0.000150162
0.000159511
0.000171065
0.000184732
0.000200244
0.000217124
0.000234933
0.000253397
0.00027211
0.000290953
0.000309803
0.00032859
0.000347258
0.000365756
0.000384073
0.000402187
0.000420081
0.000437728
0.000455133
0.00047228
0.000489152
0.000505731
0.000522021
0.000538072
0.00055395
0.00056966
0.000585197
0.000600558
0.000615743
0.000630751
0.000645585
0.000660248
0.000674741
0.000689062
0.00070321
0.000717176
0.000730957
0.000744553
0.000757969
0.000771206
0.000784268
0.000797156
0.000809871
0.000822412
0.000834779
0.000846968
0.000858974
0.000870791
0.000882408
0.000893813
0.000904986
0.000915913
0.000926587
0.000936998
0.000947139
0.00095701
0.000966617
0.000975975
0.000985088
0.000993965
0.00100261
0.00101102
0.00101921
0.00102719
0.00103497
0.00104254
0.00104991
0.00105709
0.00106406
0.00107084
0.00107741
0.00108377
0.00108993
0.00109587
0.00110161
0.00110714
0.00111245
0.00111755
0.00112244
0.00112712
0.00113157
0.00113581
0.00113984
0.00114364
0.00114723
0.0011506
0.00115375
0.00115668
0.00115939
0.00116187
0.00116413
0.00116616
0.00116796
0.00116954
0.00117088
0.001172
0.00117288
0.00117353
0.00117395
0.00117413
0.00117407
0.00117377
0.00117323
0.00117243
0.00117139
0.00117008
0.00116851
0.00116666
0.00116449
0.00116197
0.00115903
0.00115559
0.00115163
0.00114718
0.00114226
0.00113684
0.0011309
0.00112439
0.00111731
0.0011096
0.00110109
0.00109133
0.00108004
0.00106745
0.00105394
0.00103983
0.00102442
0.00100867
0.000989507
0.00094499
4.32716e-09
2.81887e-07
3.49721e-06
1.53635e-05
3.54724e-05
6.01395e-05
8.61438e-05
0.00011114
0.000133578
0.000152479
0.000167354
0.000178223
0.000185284
0.00018883
0.000189538
0.000187545
0.000183099
0.000176872
0.0001695
0.000161668
0.000154135
0.000147732
0.000143359
0.000141954
0.000144313
0.000150823
0.000161183
0.000174037
0.000187215
0.000198511
0.000206676
0.000211654
0.000213903
0.000214118
0.000212945
0.000210848
0.000208248
0.000205509
0.00020295
0.000200761
0.000199144
0.00019844
0.000198985
0.000200916
0.000204475
0.000210183
0.000218381
0.00022917
0.000242355
0.000257831
0.000275607
0.000295626
0.000317743
0.000341965
0.000367937
0.000395389
0.000423985
0.000453423
0.000483379
0.000513646
0.000544034
0.000574442
0.000604754
0.000634879
0.000664767
0.000694374
0.000723687
0.000752661
0.00078127
0.000809516
0.000837386
0.00086488
0.000892003
0.000918766
0.000945177
0.000971233
0.000996927
0.00102226
0.00104722
0.00107182
0.00109605
0.00111992
0.00114343
0.00116657
0.00118936
0.00121178
0.00123385
0.00125557
0.00127694
0.00129796
0.00131864
0.00133898
0.00135897
0.00137862
0.00139791
0.00141685
0.00143542
0.00145362
0.00147144
0.00148885
0.00150586
0.00152246
0.00153863
0.00155438
0.0015697
0.00158461
0.0015991
0.00161318
0.00162686
0.00164013
0.001653
0.00166547
0.00167755
0.00168923
0.00170052
0.00171142
0.00172193
0.00173205
0.00174178
0.00175111
0.00176005
0.0017686
0.00177674
0.00178449
0.00179185
0.0017988
0.00180536
0.00181152
0.00181728
0.00182265
0.00182761
0.00183218
0.00183637
0.00184015
0.00184355
0.00184656
0.00184918
0.00185142
0.00185327
0.00185474
0.00185582
0.00185651
0.00185683
0.00185677
0.00185634
0.00185553
0.00185434
0.00185279
0.00185087
0.00184858
0.00184593
0.00184292
0.00183954
0.0018358
0.00183169
0.00182722
0.00182237
0.00181714
0.0018115
0.00180542
0.00179885
0.00179174
0.00178408
0.00177586
0.0017671
0.00175778
0.00174787
0.00173734
0.00172616
0.00171429
0.00170157
0.00168767
0.0016723
0.00165554
0.00163761
0.00161863
0.0015982
0.00157651
0.00155082
0.00149683
2.16511e-08
7.64587e-07
8.66459e-06
3.12599e-05
6.28844e-05
9.70484e-05
0.000129783
0.000159156
0.000184306
0.000204911
0.000220913
0.000232486
0.000239946
0.000243734
0.000244436
0.000242325
0.000237828
0.000231649
0.000224489
0.000217146
0.000210507
0.000205503
0.000203034
0.000203791
0.000208096
0.000215707
0.000225611
0.000236274
0.000245876
0.000253099
0.000257451
0.000259101
0.000258721
0.000257137
0.000255129
0.000253364
0.000252239
0.000251891
0.000252383
0.000254209
0.000257958
0.000263798
0.000271937
0.000282736
0.000296315
0.000312544
0.000331352
0.00035267
0.000376461
0.000402638
0.000431079
0.000461699
0.000494347
0.000528868
0.000565006
0.000602528
0.000641145
0.00068057
0.000720551
0.000760881
0.000801354
0.000841823
0.000882161
0.000922303
0.000962164
0.00100166
0.00104077
0.00107945
0.00111767
0.00115542
0.00119269
0.00122946
0.00126572
0.00130147
0.0013367
0.0013714
0.00140556
0.00143918
0.00147225
0.00150477
0.00153675
0.00156818
0.00159906
0.0016294
0.0016592
0.00168847
0.00171721
0.00174543
0.00177313
0.0018003
0.00182697
0.00185311
0.00187874
0.00190386
0.00192845
0.00195252
0.00197605
0.00199905
0.00202149
0.00204338
0.00206471
0.00208548
0.00210567
0.0021253
0.00214436
0.00216286
0.0021808
0.00219817
0.00221499
0.00223124
0.00224694
0.00226208
0.00227667
0.00229071
0.00230419
0.00231713
0.00232951
0.00234134
0.00235262
0.00236335
0.00237352
0.00238315
0.00239222
0.00240075
0.00240873
0.00241617
0.00242306
0.00242941
0.00243522
0.00244049
0.00244522
0.00244943
0.0024531
0.00245625
0.00245889
0.00246101
0.00246261
0.00246371
0.0024643
0.00246438
0.00246396
0.00246305
0.00246165
0.00245976
0.00245738
0.00245453
0.0024512
0.00244741
0.00244316
0.00243844
0.00243328
0.00242766
0.0024216
0.00241511
0.00240817
0.00240079
0.00239298
0.00238473
0.00237601
0.00236682
0.00235713
0.0023469
0.00233613
0.0023248
0.00231292
0.00230048
0.00228746
0.00227384
0.00225957
0.00224461
0.00222886
0.00221209
0.00219405
0.00217473
0.00215421
0.0021325
0.00210932
0.00208459
0.00205562
0.00200172
6.06672e-08
1.85837e-06
1.77854e-05
5.2024e-05
9.35643e-05
0.000134848
0.000172356
0.000204633
0.000231266
0.000252351
0.000268264
0.0002794
0.000286207
0.000289224
0.000289026
0.000286137
0.000281259
0.000275129
0.000268524
0.000262255
0.000257135
0.000253919
0.000253189
0.000255249
0.000259976
0.000266711
0.000274404
0.000281798
0.000287882
0.000292087
0.000294413
0.000295314
0.000295502
0.00029574
0.000296562
0.000298221
0.000300933
0.00030533
0.000312148
0.000321656
0.000333924
0.000349062
0.000366968
0.000387604
0.000410958
0.000436986
0.000465646
0.000496798
0.000530316
0.000566056
0.000603889
0.000643669
0.000685226
0.000728376
0.000772912
0.000818618
0.000865249
0.000912583
0.000960385
0.00100849
0.00105673
0.00110492
0.00115296
0.00120075
0.00124822
0.00129529
0.0013419
0.00138803
0.00143363
0.00147866
0.00152311
0.00156696
0.00161017
0.00165274
0.00169465
0.00173589
0.00177644
0.00181629
0.00185544
0.00189388
0.00193161
0.00196863
0.00200496
0.00204058
0.00207551
0.00210975
0.00214332
0.00217621
0.00220842
0.00223998
0.00227087
0.00230109
0.00233066
0.00235956
0.0023878
0.00241538
0.00244228
0.00246851
0.00249405
0.00251892
0.00254309
0.00256658
0.00258939
0.0026115
0.00263294
0.00265369
0.00267376
0.00269315
0.00271187
0.0027299
0.00274726
0.00276394
0.00277996
0.0027953
0.00280997
0.00282397
0.00283731
0.00284998
0.00286199
0.00287334
0.00288402
0.00289405
0.00290342
0.00291214
0.00292021
0.00292764
0.00293443
0.00294058
0.00294608
0.00295095
0.00295519
0.00295881
0.00296181
0.0029642
0.00296599
0.00296718
0.00296777
0.00296776
0.00296717
0.002966
0.00296425
0.00296192
0.00295903
0.00295558
0.00295158
0.00294703
0.00294193
0.00293631
0.00293016
0.00292348
0.0029163
0.00290861
0.00290042
0.00289174
0.00288258
0.00287293
0.0028628
0.0028522
0.00284112
0.00282954
0.00281747
0.00280488
0.00279176
0.00277812
0.00276395
0.00274925
0.00273399
0.00271817
0.00270175
0.00268471
0.00266696
0.00264835
0.00262873
0.00260801
0.00258621
0.00256328
0.00253899
0.00251311
0.00248355
0.00243437
1.14867e-07
3.77808e-06
2.90965e-05
7.39767e-05
0.000123723
0.000170618
0.00021166
0.000245906
0.000273418
0.000294531
0.000309726
0.000319664
0.000325085
0.000326733
0.000325336
0.000321639
0.000316399
0.000310384
0.000304367
0.000299098
0.000295253
0.000293369
0.000293753
0.000296408
0.000300946
0.000306706
0.000312836
0.000318536
0.000323311
0.000327069
0.000330096
0.000332927
0.000336019
0.000339685
0.000344473
0.000351229
0.000360658
0.000373021
0.000388326
0.000406503
0.000427475
0.000451295
0.00047795
0.000507365
0.000539458
0.000574118
0.000611208
0.000650572
0.00069206
0.000735518
0.000780794
0.000827726
0.000876144
0.000925868
0.00097672
0.00102852
0.00108106
0.00113414
0.0011876
0.00124128
0.00129501
0.00134867
0.00140215
0.00145535
0.00150819
0.0015606
0.00161253
0.00166391
0.00171471
0.00176489
0.0018144
0.00186322
0.00191132
0.00195867
0.00200525
0.00205104
0.00209602
0.00214018
0.0021835
0.00222599
0.00226764
0.00230844
0.00234842
0.00238756
0.00242589
0.00246341
0.00250013
0.00253606
0.0025712
0.00260556
0.00263914
0.00267195
0.00270399
0.00273524
0.00276572
0.00279542
0.00282433
0.00285245
0.00287979
0.00290634
0.00293211
0.00295711
0.00298134
0.0030048
0.0030275
0.00304944
0.00307063
0.00309106
0.00311074
0.00312967
0.00314786
0.00316529
0.00318198
0.00319793
0.00321313
0.00322759
0.00324132
0.0032543
0.00326655
0.00327807
0.00328886
0.00329892
0.00330826
0.00331689
0.0033248
0.003332
0.00333851
0.00334431
0.0033494
0.00335379
0.0033575
0.00336054
0.00336289
0.00336458
0.00336561
0.00336598
0.0033657
0.00336477
0.00336321
0.003361
0.00335818
0.00335474
0.00335069
0.00334604
0.0033408
0.00333498
0.00332859
0.00332162
0.00331409
0.00330601
0.00329737
0.0032882
0.00327849
0.00326825
0.00325749
0.00324622
0.00323445
0.00322218
0.00320941
0.00319615
0.0031824
0.00316814
0.00315338
0.00313812
0.00312236
0.00310609
0.00308932
0.00307203
0.00305421
0.00303584
0.00301686
0.00299719
0.00297671
0.00295535
0.00293309
0.00290989
0.00288561
0.00286002
0.00283127
0.00278811
1.69858e-07
6.39908e-06
4.10392e-05
9.50712e-05
0.000151567
0.00020309
0.000247063
0.000282946
0.000310859
0.000331375
0.000345333
0.000353834
0.000357749
0.000358029
0.000355545
0.000351152
0.000345685
0.000339931
0.000334623
0.000330402
0.000327781
0.000327093
0.000328445
0.000331645
0.000336304
0.000341871
0.000347776
0.000353597
0.000359191
0.000364644
0.000370124
0.000375867
0.000382625
0.000391402
0.000402819
0.000417083
0.000434234
0.000454244
0.000477107
0.000502892
0.000531562
0.000563055
0.000597257
0.000634048
0.000673289
0.000714836
0.000758529
0.000804212
0.000851731
0.000900928
0.000951648
0.00100373
0.00105702
0.00111134
0.00116655
0.00122247
0.00127895
0.00133583
0.00139296
0.00145021
0.00150744
0.00156456
0.00162145
0.00167805
0.00173426
0.00179002
0.00184527
0.00189996
0.00195403
0.00200743
0.00206013
0.00211207
0.00216324
0.00221359
0.00226309
0.00231172
0.00235946
0.00240627
0.00245216
0.00249711
0.00254112
0.00258419
0.00262631
0.00266752
0.00270781
0.00274721
0.00278573
0.00282337
0.00286015
0.00289607
0.00293113
0.00296535
0.00299872
0.00303124
0.00306292
0.00309375
0.00312374
0.00315289
0.0031812
0.00320868
0.00323534
0.00326118
0.00328621
0.00331043
0.00333383
0.00335643
0.00337822
0.0033992
0.00341938
0.00343877
0.00345735
0.00347513
0.00349212
0.00350832
0.00352373
0.00353836
0.0035522
0.00356526
0.00357755
0.00358906
0.0035998
0.00360978
0.003619
0.00362746
0.00363518
0.00364215
0.00364839
0.00365389
0.00365864
0.00366267
0.00366598
0.00366858
0.00367047
0.00367167
0.00367217
0.00367198
0.00367111
0.00366957
0.00366735
0.00366447
0.00366094
0.00365675
0.00365192
0.00364646
0.00364038
0.00363367
0.00362635
0.00361843
0.00360991
0.00360081
0.00359113
0.00358087
0.00357006
0.00355869
0.00354678
0.00353434
0.00352137
0.00350789
0.00349391
0.00347942
0.00346445
0.00344899
0.00343305
0.00341663
0.00339974
0.00338238
0.00336455
0.00334624
0.00332745
0.00330815
0.00328833
0.00326793
0.00324689
0.00322517
0.00320275
0.00317963
0.00315575
0.00313095
0.00310394
0.00306608
2.16177e-07
9.22307e-06
5.18849e-05
0.000113645
0.000176312
0.000232178
0.000278837
0.000315843
0.000343714
0.000363328
0.000376081
0.000383204
0.000385761
0.000384893
0.000381592
0.000376809
0.000371415
0.000366189
0.000361801
0.000358786
0.000357513
0.000358162
0.000360691
0.000364884
0.000370405
0.000376849
0.000383885
0.000391242
0.000398734
0.000406481
0.000415148
0.000425666
0.00043851
0.000453879
0.000471929
0.000492766
0.000516481
0.000543118
0.000572647
0.000605013
0.000640112
0.000677815
0.000717977
0.000760447
0.000805071
0.000851692
0.000900154
0.0009503
0.00100198
0.00105504
0.00110932
0.00116469
0.00122098
0.00127806
0.00133578
0.00139401
0.00145261
0.00151147
0.00157045
0.00162946
0.00168838
0.00174712
0.0018056
0.00186377
0.00192154
0.00197888
0.00203571
0.002092
0.00214768
0.00220269
0.00225696
0.00231048
0.00236321
0.00241509
0.0024661
0.00251619
0.00256534
0.00261351
0.00266069
0.00270688
0.00275208
0.00279632
0.00283957
0.00288182
0.00292308
0.00296336
0.00300267
0.00304105
0.0030785
0.00311503
0.00315066
0.0031854
0.00321924
0.00325222
0.00328432
0.00331556
0.00334594
0.00337547
0.00340414
0.00343197
0.00345896
0.0034851
0.00351041
0.00353488
0.00355851
0.00358131
0.00360328
0.00362442
0.00364473
0.00366422
0.00368289
0.00370074
0.00371778
0.003734
0.00374941
0.00376402
0.00377782
0.00379083
0.00380304
0.00381446
0.0038251
0.00383495
0.00384403
0.00385234
0.00385989
0.00386669
0.00387272
0.003878
0.00388254
0.00388633
0.00388939
0.00389172
0.00389334
0.00389424
0.00389443
0.00389392
0.00389272
0.00389082
0.00388824
0.00388498
0.00388105
0.00387646
0.00387121
0.00386532
0.00385878
0.00385161
0.00384382
0.0038354
0.00382638
0.00381675
0.00380652
0.00379571
0.00378433
0.00377237
0.00375985
0.00374679
0.00373319
0.00371906
0.00370442
0.00368928
0.00367365
0.00365755
0.00364097
0.00362394
0.00360646
0.00358854
0.00357018
0.00355139
0.00353217
0.0035125
0.00349238
0.00347178
0.00345067
0.00342903
0.00340683
0.0033841
0.00336078
0.00333688
0.00331123
0.00327829
2.53292e-07
1.16325e-05
6.11034e-05
0.000130006
0.000198499
0.000258351
0.000307195
0.000345037
0.00037264
0.00039136
0.000403122
0.00040908
0.000410593
0.000408952
0.000405244
0.000400476
0.000395526
0.000391138
0.000387955
0.000386448
0.000386845
0.000389167
0.000393291
0.000399021
0.000406089
0.000414112
0.000422705
0.000431895
0.000442169
0.000454099
0.000467969
0.000483942
0.000502288
0.000523221
0.000546918
0.000573456
0.000602852
0.000635062
0.000669996
0.000707534
0.000747533
0.000789837
0.000834286
0.00088072
0.000928981
0.000978911
0.00103036
0.00108317
0.0011372
0.0011923
0.00124834
0.00130517
0.00136266
0.00142067
0.0014791
0.00153783
0.00159678
0.00165584
0.00171495
0.001774
0.00183291
0.00189155
0.00194991
0.00200798
0.0020657
0.00212302
0.00217991
0.00223634
0.0022923
0.00234784
0.00240291
0.00245727
0.0025108
0.00256344
0.00261517
0.00266594
0.0027157
0.00276442
0.00281207
0.00285862
0.00290406
0.00294836
0.00299155
0.0030337
0.00307485
0.00311503
0.00315426
0.00319256
0.00322994
0.00326643
0.00330203
0.00333676
0.00337062
0.00340362
0.00343575
0.00346703
0.00349746
0.00352703
0.00355576
0.00358363
0.00361065
0.00363683
0.00366217
0.00368666
0.00371032
0.00373313
0.00375511
0.00377626
0.00379657
0.00381606
0.00383472
0.00385256
0.00386957
0.00388577
0.00390116
0.00391573
0.00392951
0.00394247
0.00395464
0.00396602
0.00397661
0.00398642
0.00399546
0.00400372
0.00401121
0.00401795
0.00402393
0.00402915
0.00403362
0.00403736
0.00404035
0.00404262
0.00404417
0.00404499
0.00404511
0.00404451
0.00404322
0.00404123
0.00403855
0.00403519
0.00403116
0.00402646
0.00402109
0.00401507
0.00400841
0.00400111
0.00399317
0.00398461
0.00397543
0.00396564
0.00395525
0.00394426
0.00393268
0.00392052
0.00390779
0.0038945
0.00388066
0.00386629
0.00385139
0.00383598
0.00382009
0.00380372
0.00378689
0.00376961
0.0037519
0.00373378
0.00371525
0.00369632
0.003677
0.00365728
0.00363718
0.00361668
0.00359577
0.00357444
0.00355271
0.0035306
0.00350806
0.00348526
0.00346092
0.00343267
2.8252e-07
1.37423e-05
6.9337e-05
0.000144804
0.000218577
0.000281887
0.000332607
0.000371049
0.000398353
0.000416462
0.000427417
0.000432559
0.000433446
0.000431486
0.00042784
0.000423545
0.000419468
0.000416306
0.000414615
0.00041482
0.000417192
0.000421542
0.000427609
0.000435136
0.000443737
0.00045344
0.00046458
0.000477342
0.000491776
0.000507992
0.000526256
0.000546824
0.000569906
0.000595644
0.00062411
0.000655303
0.000689168
0.000725603
0.000764475
0.000805633
0.000848913
0.000894148
0.000941173
0.000989822
0.00103993
0.00109135
0.00114392
0.00119749
0.00125194
0.00130716
0.00136302
0.0014194
0.00147619
0.00153324
0.00159039
0.00164767
0.00170506
0.0017625
0.00181994
0.00187739
0.00193489
0.0019926
0.00205027
0.00210766
0.00216472
0.0022214
0.00227767
0.00233349
0.00238882
0.0024436
0.00249773
0.00255122
0.002604
0.00265597
0.00270714
0.00275744
0.00280682
0.00285521
0.00290254
0.0029488
0.00299397
0.00303804
0.00308107
0.00312305
0.00316401
0.00320399
0.00324303
0.00328114
0.00331835
0.00335468
0.00339015
0.00342475
0.00345851
0.00349141
0.00352347
0.00355469
0.00358507
0.00361461
0.0036433
0.00367116
0.00369819
0.00372437
0.00374972
0.00377424
0.00379792
0.00382077
0.00384279
0.00386398
0.00388435
0.00390389
0.00392261
0.00394051
0.0039576
0.00397387
0.00398934
0.00400399
0.00401785
0.00403091
0.00404318
0.00405466
0.00406535
0.00407527
0.00408442
0.0040928
0.00410042
0.00410728
0.00411338
0.00411874
0.00412336
0.00412724
0.00413038
0.0041328
0.00413449
0.00413547
0.00413573
0.00413529
0.00413415
0.00413231
0.00412978
0.00412657
0.00412268
0.00411812
0.00411291
0.00410703
0.00410051
0.00409335
0.00408556
0.00407713
0.00406809
0.00405843
0.00404817
0.00403731
0.00402585
0.0040138
0.00400117
0.00398797
0.00397421
0.0039599
0.00394505
0.0039297
0.00391384
0.0038975
0.0038807
0.00386346
0.0038458
0.00382774
0.00380929
0.00379048
0.0037713
0.00375178
0.00373192
0.00371172
0.0036912
0.00367036
0.00364921
0.00362782
0.00360611
0.00358443
0.00356121
0.00353692
3.03428e-07
1.57768e-05
7.69532e-05
0.000158346
0.000236757
0.000303094
0.000355428
0.000394347
0.000421449
0.00043921
0.000449666
0.000454403
0.000455126
0.00045333