/*--------------------------------*- C++ -*----------------------------------*\
| =========                 |                                                 |
| \\      /  F ield         | OpenFOAM: The Open Source CFD Toolbox           |
|  \\    /   O peration     | Version:  2312                                  |
|   \\  /    A nd           | Website:  www.openfoam.com                      |
|    \\/     M anipulation  |                                                 |
\*---------------------------------------------------------------------------*/
FoamFile
{
    version     2.0;
    format      ascii;
    arch        "LSB;label=32;scalar=64";
    class       volScalarField;
    location    "0.2";
    object      omegaMean;
}
// * * * * * * * * * * * * * * * * * * * * * * * * * * * * * * * * * * * * * //

dimensions      [0 0 -1 0 0 0 0];

internalField   nonuniform List<scalar> 
12225
(
38109.5
48370.6
92599
91909.7
82261.2
70118.7
63356.3
59992.6
58494.2
57898.7
57596.7
57423.4
57253.5
57123.3
57103.6
57006.8
57395.5
56900.2
2814.06
9369.5
32874.6
41607
40380.1
37269.2
34198.6
31942.2
30307.6
29130.5
28260.1
27571.8
27003.4
26520.8
26079.3
25771.5
25334.1
25227.4
589.827
1516.06
6269.51
14698.7
18457.5
19450.1
19349.1
19023.1
18506.9
17996.8
17532.4
17136.1
16802
16527.7
16250.3
16058.4
15761.7
15628.5
453.887
592.829
1348.22
3362.76
5762.8
7306.49
8260.35
8894.92
9311.41
9600.79
9803.35
9959.18
10083.6
10183.5
10249.4
10302.8
10302.2
10343.9
442.947
465.057
580.105
888.834
1576.04
2263.69
2776.92
3230.02
3563.32
3892.98
4133.12
4398.52
4585.68
4812.61
4949.72
5136
5218.06
5388.7
442.513
446.175
462.854
512.93
638.351
849.31
1016.3
1187.47
1314.51
1456.04
1554.29
1675.08
1751.13
1858.97
1926.3
2040.66
2099.43
2224.04
442.915
443.406
446.064
454.159
474.507
521.33
573.9
635.685
682.91
739.177
779.229
829.573
862.418
907.959
936.442
982.882
1006.9
1056.67
442.721
442.672
442.964
444.504
447.932
456.362
468.967
489.022
505.641
527.424
543.899
565.014
579.93
599.627
612.306
631.088
640.934
660.589
442.365
442.071
441.671
441.879
442.524
443.885
445.953
450.121
454.53
461.191
466.825
474.535
480.469
488.437
493.968
501.989
506.422
514.981
442.295
441.982
441.239
440.801
440.594
440.456
440.301
440.432
440.796
441.687
442.773
444.43
446.037
448.254
450.074
452.694
454.314
457.438
442.281
441.86
440.864
440.011
439.344
438.706
437.985
437.232
436.495
435.875
435.361
435.016
434.783
434.722
434.73
434.927
435.021
435.6
442.05
441.567
440.435
439.341
438.393
437.491
436.546
435.555
434.548
433.575
432.641
431.784
430.978
430.275
429.602
429.069
428.473
428.168
441.74
441.161
439.947
438.703
437.56
436.47
435.371
434.254
433.13
432.031
430.955
429.935
428.937
428.02
427.105
426.306
425.451
424.788
441.346
440.675
439.417
438.061
436.759
435.509
434.273
433.045
431.83
430.649
429.496
428.395
427.316
426.306
425.303
424.391
423.45
422.64
440.827
439.983
438.645
437.207
435.798
434.437
433.11
431.812
430.54
429.306
428.105
426.955
425.834
424.773
423.73
422.762
421.786
420.911
440.578
439.575
438.108
436.556
435.037
433.578
432.169
430.805
429.479
428.2
426.959
425.77
424.614
423.516
422.444
421.436
420.439
419.521
440.31
439.199
437.687
436.101
434.539
433.031
431.574
430.167
428.803
427.486
426.212
424.987
423.802
422.669
421.572
420.529
419.512
418.559
440.091
438.819
437.211
435.557
433.938
432.379
430.882
429.443
428.056
426.719
425.43
424.188
422.994
421.846
420.743
419.685
418.669
417.698
440.026
438.692
437.049
435.38
433.76
432.206
430.719
429.292
427.919
426.593
425.315
424.082
422.896
421.752
420.658
419.602
418.595
417.622
440.195
438.998
437.425
435.795
434.211
432.705
431.271
429.898
428.574
427.291
426.048
424.843
423.682
422.559
421.483
420.443
419.454
418.492
440.418
439.371
437.915
436.373
434.872
433.457
432.124
430.851
429.615
428.404
427.219
426.061
424.942
423.854
422.817
421.809
420.859
419.926
440.552
439.593
438.19
436.727
435.34
434.076
432.922
431.829
430.764
429.705
428.667
427.653
426.692
425.769
424.922
424.106
423.393
422.665
440.772
439.943
438.649
437.285
436.073
435.09
434.322
433.656
433.119
432.647
432.37
432.219
432.296
432.496
432.934
433.407
434.208
434.775
440.932
440.162
438.913
437.737
437.041
437.049
437.937
439.582
442.991
446.844
452.804
458.13
465.46
471.523
479.546
485.784
494.152
500.181
441.244
440.615
439.76
440.178
442.494
448.529
463.069
483.363
518.062
550.786
590.344
623.298
661.879
692.331
728.869
756.231
790.706
814.852
441.336
442.531
446.741
458.157
486.815
552.537
687.889
845.398
1037.4
1202.07
1367.68
1499.84
1638.66
1746.35
1867.07
1957.55
2065.66
2142.99
442.839
464.822
510.933
613.422
867.645
1496.02
2459.97
3310.34
3963.02
4437.96
4818.49
5104.02
5356.94
5546.34
5733.28
5867.48
6016.03
6112.63
485.753
744.114
1093.63
1912.29
4098.98
8210.01
10991.9
12459.5
13086.7
13274.2
13256.3
13179.9
13056
12918.5
12790
12655
12543
12408
1461.03
4208.89
7095.08
11381.6
23005.4
30625.6
30496.1
29469
27550.8
25905.9
24584.6
23562.8
22779
22167.1
21683.8
21280.5
20956
20650.2
23524.1
28187.1
33753.9
43132.4
67468.9
69593.3
65411.3
56942.5
50638.4
46688.3
44500.9
43347.6
42747.2
42436.1
42231
42085.4
41923.5
41786.3
11463.3
2514.75
2517.82
2522.67
2530.68
2541.15
2552.72
2564.4
2575.54
2585.7
2594.62
2602.14
2608.29
2612.61
2615.58
2617.52
2618.17
2617.53
2615.69
2612.85
2609.32
2605.52
2601.92
2598.99
2597.21
2596.74
2598.21
2601.51
2606.95
2616.04
2629.36
2644.68
2660.2
2675.17
2689.43
2703.13
2716.53
2729.92
2743.55
2757.63
2772.31
2787.67
2803.62
2819.62
2834.81
2847.23
2855.78
2861.23
2863.89
2865.5
2868.34
2872.79
2879.95
2893.31
2925.19
2990.32
3092.92
3236.51
3416.94
3619.31
3832.83
4051.16
4270.25
4487.42
4701
4909.95
5113.69
5311.9
5504.47
5691.35
5872.58
6048.17
6218.15
6382.53
6541.44
6695.08
6843.58
6987.13
7125.86
7259.93
7389.47
7514.62
7635.51
7752.27
7865
7973.8
8078.75
8179.91
8277.33
8371.05
8461.09
8547.49
8630.26
8709.41
8784.94
8856.84
8925.11
8989.75
9050.72
9108.02
9161.63
9211.51
9257.63
9300
9338.59
9373.39
9404.39
9431.67
9455.25
9475.06
9491.16
9503.71
9512.75
9518.16
9520.13
9518.58
9513.66
9505.35
9493.67
9478.69
9460.45
9438.99
9414.36
9386.63
9355.85
9322.08
9285.39
9245.85
9203.54
9158.53
9110.91
9060.77
9008.19
8953.28
8896.12
8836.84
8775.52
8712.28
8647.24
8580.52
8512.23
8442.5
8371.47
8299.27
8226.02
8151.87
8076.94
8001.38
7925.32
7848.89
7772.22
7695.44
7618.68
7542.05
7465.68
7389.67
7314.12
7239.14
7164.89
7091.84
7021.96
6958.29
6900.45
6847.08
6798.3
6755.01
6717.64
6687.33
6662.9
6645.98
6640.59
6658.61
6707.98
6769.81
6832.54
6890.89
6951.35
6986.01
7041.51
6889.04
11463.4
2120.36
992.654
749.348
646.572
584.075
540.64
512.24
495.359
487.277
485.345
487.863
493.877
502.553
512.852
527.61
548.669
574.74
603.754
633.137
660.351
682.858
697.63
700.999
694.212
673.315
638.074
600.536
570.891
559.265
563.709
579.983
603.291
629.442
657.024
685.624
715.484
747.222
781.657
819.664
862.045
909.449
962.403
1021.52
1087.99
1164.25
1253.77
1356.44
1466.95
1578.57
1683.92
1776.6
1852.93
1911.96
1956.04
1989.78
2018.28
2045.67
2073.66
2101.68
2129.15
2155.86
2181.76
2206.85
2231.16
2254.74
2277.66
2299.94
2321.61
2342.66
2363.09
2382.89
2402.03
2420.5
2438.3
2455.47
2472.02
2487.96
2503.29
2518.05
2532.22
2545.82
2558.87
2571.35
2583.28
2594.65
2605.45
2615.68
2625.32
2634.35
2642.78
2650.59
2657.78
2664.32
2670.23
2675.5
2680.13
2684.13
2687.5
2690.23
2692.34
2693.86
2694.87
2695.42
2695.62
2695.53
2695.17
2694.51
2693.54
2692.25
2690.65
2688.77
2686.58
2684.01
2681.01
2677.52
2673.5
2668.93
2663.86
2658.28
2652.21
2645.67
2638.69
2631.26
2623.41
2615.16
2606.5
2597.47
2588.08
2578.35
2568.29
2557.93
2547.27
2536.34
2525.16
2513.74
2502.1
2490.27
2478.26
2466.09
2453.78
2441.36
2428.83
2416.23
2403.56
2390.85
2378.12
2365.38
2352.66
2339.97
2327.32
2314.74
2302.24
2289.84
2277.55
2265.38
2253.36
2241.51
2229.89
2218.66
2208.12
2198.68
2190.34
2182.93
2176.45
2171.03
2166.81
2163.96
2162.44
2162.47
2164.78
2171.4
2183.52
2199.18
2216.12
2233.73
2252.81
2272.09
2295.23
2339.08
11463.4
2400.26
1175
793.033
602.025
483.077
407.774
358.521
326.113
305.019
291.778
284.371
281.514
281.845
284.778
290.573
299.293
310.647
324.231
339.384
355.188
370.471
383.736
392.931
397.208
396.949
391.613
385.091
382.065
386.059
397.837
416.257
439.96
468.001
499.943
535.774
575.677
619.925
668.757
722.322
780.437
842.181
906.043
970.058
1031.95
1091.24
1146.77
1196.62
1238.7
1271.78
1296.41
1314.81
1327.63
1335.63
1339.75
1341.38
1341.35
1339.77
1337.97
1336.22
1334.93
1334.25
1334.25
1334.98
1336.33
1338.27
1340.73
1343.7
1347.07
1350.79
1354.78
1359.01
1363.41
1367.95
1372.6
1377.34
1382.13
1386.97
1391.82
1396.68
1401.52
1406.33
1411.09
1415.8
1420.42
1424.96
1429.39
1433.71
1437.89
1441.94
1445.84
1449.58
1453.16
1456.57
1459.81
1462.87
1465.76
1468.47
1471.02
1473.41
1475.66
1477.78
1479.79
1481.68
1483.47
1485.17
1486.76
1488.21
1489.54
1490.73
1491.77
1492.66
1493.39
1493.95
1494.34
1494.53
1494.54
1494.35
1493.98
1493.42
1492.68
1491.76
1490.67
1489.42
1487.99
1486.41
1484.67
1482.78
1480.73
1478.54
1476.21
1473.75
1471.16
1468.44
1465.59
1462.64
1459.57
1456.4
1453.14
1449.77
1446.32
1442.79
1439.19
1435.51
1431.77
1427.97
1424.12
1420.23
1416.29
1412.32
1408.32
1404.29
1400.25
1396.19
1392.13
1388.07
1384.02
1380
1376.03
1372.18
1368.53
1365.18
1362.15
1359.43
1357
1354.9
1353.18
1351.9
1351.09
1350.82
1351.31
1353.18
1356.77
1361.79
1367.65
1374.33
1381.74
1391.07
1402.25
1434.26
11463.8
2703.04
1258.86
789.495
562.034
435.594
359.599
311.446
279.962
259.247
245.904
237.709
233.361
232.088
233.121
236.39
241.991
249.628
259.116
270.2
282.477
295.348
308.007
319.499
329.115
336.857
343.441
350.619
360.464
374.617
393.784
417.756
446.3
479.074
515.785
556.28
600.097
646.466
694.291
742.573
790.096
835.073
875.806
911.771
942.64
967.17
984.998
996.828
1004.69
1009.9
1012.91
1014.12
1014.02
1012.33
1009.76
1006.5
1002.88
999.154
995.703
992.708
990.333
988.58
987.483
987.038
987.188
987.881
989.031
990.617
992.594
994.893
997.473
1000.3
1003.33
1006.54
1009.92
1013.42
1017.04
1020.74
1024.52
1028.36
1032.23
1036.13
1040.04
1043.94
1047.82
1051.68
1055.5
1059.26
1062.97
1066.62
1070.19
1073.69
1077.11
1080.44
1083.68
1086.83
1089.89
1092.87
1095.76
1098.56
1101.29
1103.94
1106.5
1108.99
1111.39
1113.71
1115.93
1118.05
1120.07
1121.98
1123.78
1125.48
1127.05
1128.5
1129.83
1131.04
1132.12
1133.07
1133.89
1134.6
1135.17
1135.63
1135.96
1136.18
1136.27
1136.25
1136.11
1135.86
1135.5
1135.03
1134.45
1133.76
1132.97
1132.08
1131.08
1130
1128.81
1127.54
1126.18
1124.73
1123.2
1121.59
1119.9
1118.14
1116.31
1114.41
1112.45
1110.43
1108.35
1106.22
1104.03
1101.8
1099.52
1097.2
1094.84
1092.46
1090.04
1087.61
1085.18
1082.78
1080.44
1078.19
1076.06
1074.04
1072.13
1070.35
1068.71
1067.26
1066.02
1065.01
1064.35
1064.26
1064.92
1066.3
1068.21
1070.75
1073.84
1078.38
1084.71
1103.51
11466.3
2824.15
1212.13
697.667
481.518
374.378
314.061
276.91
252.743
236.661
226.1
219.562
216.138
215.259
216.43
219.64
224.875
231.983
240.886
251.44
263.401
276.391
289.905
303.427
316.583
329.369
342.461
356.854
373.845
394.434
419.083
447.885
480.418
515.925
553.392
591.543
629.271
665.892
700.955
733.045
760.622
783.477
801.515
814.465
822.921
828.282
831.513
833.274
833.876
833.596
832.676
831.215
829.36
827.198
824.933
822.667
820.552
818.729
817.293
816.3
815.806
815.814
816.314
817.253
818.606
820.361
822.457
824.863
827.544
830.463
833.593
836.906
840.38
843.995
847.729
851.564
855.484
859.472
863.514
867.595
871.702
875.824
879.947
884.062
888.158
892.227
896.261
900.253
904.196
908.085
911.915
915.682
919.382
923.012
926.569
930.05
933.456
936.786
940.04
943.216
946.315
949.334
952.272
955.126
957.894
960.571
963.154
965.641
968.028
970.314
972.496
974.571
976.538
978.394
980.137
981.767
983.282
984.684
985.97
987.143
988.202
989.148
989.98
990.701
991.309
991.806
992.192
992.471
992.643
992.708
992.668
992.524
992.277
991.93
991.484
990.942
990.304
989.573
988.751
987.839
986.842
985.76
984.596
983.353
982.033
980.639
979.173
977.637
976.034
974.366
972.637
970.847
969
967.1
965.148
963.149
961.108
959.029
956.924
954.805
952.688
950.59
948.521
946.484
944.483
942.525
940.622
938.793
937.054
935.432
933.977
932.798
931.997
931.596
931.552
931.972
932.828
934.69
938.098
948.526
11471.9
2726.03
1067.88
602.2
423.165
336.356
287.473
257.392
237.951
225.184
216.951
212.101
209.972
210.137
212.343
216.514
222.549
230.384
239.955
251.168
263.859
277.786
292.656
308.19
324.249
340.962
358.784
378.353
400.175
424.595
451.594
480.736
511.198
541.888
571.886
600.657
627.77
652.057
672.222
688.017
699.731
707.787
713.18
716.674
718.786
719.909
720.261
720.121
719.636
718.927
718.068
717.129
716.188
715.32
714.602
714.101
713.893
714.021
714.536
715.427
716.705
718.382
720.425
722.805
725.5
728.483
731.722
735.191
738.864
742.717
746.727
750.876
755.145
759.516
763.974
768.504
773.09
777.721
782.382
787.062
791.75
796.434
801.105
805.752
810.369
814.947
819.48
823.963
828.389
832.756
837.058
841.293
845.456
849.546
853.558
857.492
861.346
865.118
868.807
872.411
875.929
879.357
882.693
885.935
889.079
892.123
895.064
897.9
900.629
903.248
905.756
908.15
910.429
912.591
914.634
916.558
918.363
920.047
921.611
923.054
924.377
925.581
926.664
927.628
928.473
929.198
929.806
930.298
930.677
930.942
931.093
931.132
931.061
930.882
930.596
930.205
929.711
929.116
928.421
927.629
926.742
925.763
924.693
923.535
922.292
920.966
919.559
918.074
916.513
914.878
913.171
911.396
909.555
907.65
905.684
903.661
901.584
899.457
897.286
895.079
892.844
890.59
888.324
886.049
883.769
881.488
879.214
876.959
874.735
872.558
870.458
868.494
866.726
865.194
863.9
862.936
862.334
862.472
863.745
868.855
11479.6
2489.82
937.052
538.363
387.866
314.482
272.934
247.372
230.944
220.4
214.028
210.822
210.161
211.684
215.197
220.593
227.814
236.824
247.57
259.963
273.861
289.071
305.381
322.609
340.68
359.661
379.741
401.117
423.842
447.741
472.365
497.037
521.219
544.613
566.563
585.923
601.78
614.012
623.036
629.531
634.174
637.353
639.434
640.763
641.563
642.01
642.235
642.348
642.416
642.494
642.627
642.862
643.248
643.832
644.654
645.745
647.153
648.896
650.983
653.412
656.179
659.27
662.665
666.339
670.27
674.434
678.807
683.367
688.093
692.964
697.963
703.07
708.271
713.549
718.889
724.278
729.703
735.151
740.61
746.068
751.516
756.942
762.337
767.691
772.998
778.25
783.441
788.567
793.622
798.604
803.508
808.332
813.073
817.73
822.301
826.784
831.178
835.48
839.687
843.797
847.806
851.71
855.506
859.19
862.76
866.211
869.542
872.75
875.833
878.789
881.617
884.315
886.882
889.317
891.619
893.787
895.821
897.721
899.486
901.117
902.614
903.978
905.208
906.305
907.271
908.103
908.805
909.378
909.827
910.15
910.346
910.419
910.371
910.203
909.916
909.514
908.998
908.37
907.633
906.788
905.837
904.782
903.625
902.368
901.014
899.565
898.023
896.393
894.676
892.875
890.994
889.036
887.003
884.899
882.725
880.487
878.185
875.824
873.409
870.944
868.435
865.887
863.304
860.692
858.051
855.385
852.698
849.996
847.288
844.584
841.906
839.286
836.765
834.38
832.152
830.155
828.421
827.212
826.877
828.51
11487.4
2244.18
844.602
499.869
368.223
303.096
266.013
243.243
228.974
220.282
215.581
213.847
214.575
217.437
222.265
228.957
237.447
247.675
259.564
273.003
287.838
303.876
320.914
338.77
357.314
376.466
396.163
416.291
436.614
456.833
476.752
496.24
514.578
530.703
544.043
554.632
562.813
569.061
573.791
577.261
579.79
581.641
583.042
584.159
585.112
585.988
586.858
587.774
588.773
589.891
591.161
592.615
594.286
596.203
598.392
600.877
603.677
606.801
610.25
614.019
618.099
622.472
627.12
632.019
637.148
642.485
648.008
653.695
659.528
665.489
671.559
677.719
683.954
690.247
696.585
702.953
709.338
715.727
722.108
728.47
734.801
741.095
747.34
753.524
759.64
765.682
771.643
777.518
783.304
788.997
794.593
800.092
805.489
810.784
815.975
821.058
826.03
830.89
835.632
840.254
844.752
849.122
853.362
857.469
861.44
865.273
868.966
872.517
875.925
879.187
882.302
885.269
888.086
890.753
893.269
895.633
897.845
899.904
901.812
903.567
905.17
906.623
907.924
909.076
910.079
910.932
911.639
912.201
912.622
912.902
913.04
913.041
912.905
912.636
912.235
911.705
911.048
910.267
909.364
908.341
907.202
905.948
904.584
903.111
901.533
899.852
898.071
896.194
894.223
892.161
890.011
887.777
885.46
883.066
880.595
878.052
875.44
872.763
870.023
867.224
864.37
861.465
858.512
855.515
852.475
849.395
846.28
843.133
839.962
836.775
833.584
830.413
827.288
824.24
821.288
818.487
815.869
813.609
811.92
811.288
11494
2055.96
794.213
481.119
358.928
298.202
263.789
243.093
230.549
223.423
220.09
219.645
221.627
225.711
231.728
239.556
249.094
260.241
272.874
286.825
301.896
317.864
334.499
351.581
368.915
386.328
403.637
420.738
437.634
454.198
469.832
483.702
495.526
505.385
513.454
519.957
525.112
529.149
532.324
534.85
536.928
538.719
540.35
541.915
543.482
545.105
546.824
548.673
550.681
552.874
555.277
557.914
560.81
563.984
567.454
571.235
575.334
579.756
584.498
589.553
594.911
600.557
606.466
612.617
618.985
625.549
632.285
639.171
646.187
653.32
660.554
667.862
675.228
682.635
690.067
697.512
704.954
712.382
719.782
727.141
734.442
741.669
748.821
755.897
762.89
769.792
776.597
783.298
789.892
796.372
802.737
808.981
815.102
821.095
826.958
832.685
838.275
843.724
849.029
854.186
859.194
864.05
868.751
873.295
877.679
881.901
885.96
889.854
893.58
897.138
900.525
903.742
906.786
909.658
912.356
914.88
917.23
919.406
921.408
923.237
924.893
926.377
927.69
928.833
929.807
930.613
931.254
931.732
932.048
932.207
932.207
932.053
931.747
931.291
930.688
929.941
929.053
928.028
926.867
925.573
924.151
922.604
920.933
919.143
917.237
915.219
913.091
910.857
908.521
906.086
903.554
900.931
898.218
895.419
892.54
889.581
886.547
883.443
880.27
877.033
873.734
870.377
866.964
863.499
859.983
856.419
852.809
849.157
845.469
841.749
838.009
834.263
830.532
826.841
823.214
819.694
816.317
813.188
810.499
808.118
11499.3
1971.98
773.55
472.947
355.233
297.099
264.636
245.496
234.37
228.543
226.308
226.961
229.993
235.066
241.988
250.6
260.761
272.32
285.065
298.743
313.132
327.997
343.128
358.316
373.368
388.225
402.94
417.325
430.874
443.101
453.895
463.342
471.464
478.338
484.056
488.779
492.684
495.951
498.753
501.239
503.536
505.747
507.951
510.207
512.564
515.059
517.722
520.58
523.655
526.969
530.542
534.394
538.543
543.005
547.793
552.909
558.354
564.126
570.219
576.623
583.332
590.344
597.623
605.134
612.853
620.757
628.818
637.008
645.294
653.626
661.984
670.403
678.879
687.396
695.934
704.475
713.007
721.516
729.989
738.415
746.784
755.09
763.318
771.444
779.455
787.342
795.096
802.711
810.184
817.508
824.681
831.699
838.559
845.258
851.794
858.164
864.366
870.397
876.255
881.938
887.442
892.766
897.908
902.865
907.634
912.215
916.605
920.802
924.806
928.615
932.228
935.644
938.862
941.881
944.702
947.324
949.748
951.973
954.001
955.832
957.467
958.908
960.154
961.209
962.074
962.751
963.241
963.549
963.676
963.625
963.399
963
962.432
961.699
960.803
959.748
958.537
957.174
955.663
954.007
952.21
950.275
948.207
946.008
943.683
941.236
938.67
935.989
933.198
930.299
927.297
924.195
920.997
917.708
914.331
910.87
907.331
903.715
900.029
896.274
892.454
888.573
884.632
880.636
876.586
872.483
868.331
864.132
859.89
855.611
851.301
846.972
842.639
838.323
834.046
829.841
825.745
821.808
818.261
814.421
11503.5
1946.91
764.624
469.626
354.564
298.278
267.247
249.362
239.392
234.545
233.218
234.726
238.528
244.259
251.688
260.609
270.832
282.16
294.354
307.109
320.046
333.063
346.123
359.101
372.039
384.69
396.613
407.582
417.593
426.682
434.813
441.979
448.217
453.605
458.25
462.285
465.844
469.061
472.055
474.93
477.775
480.659
483.641
486.767
490.075
493.597
497.362
501.391
505.696
510.294
515.196
520.419
525.978
531.898
538.206
544.861
551.853
559.173
566.807
574.73
582.898
591.232
599.779
608.568
617.582
626.793
636.175
645.7
655.335
665.065
674.873
684.719
694.589
704.471
714.331
724.15
733.919
743.629
753.268
762.828
772.296
781.659
790.899
800.008
808.974
817.787
826.436
834.915
843.217
851.337
859.272
867.017
874.572
881.932
889.096
896.061
902.825
909.385
915.74
921.888
927.826
933.553
939.066
944.363
949.444
954.305
958.946
963.365
967.561
971.534
975.283
978.806
982.105
985.178
988.026
990.648
993.047
995.222
997.174
998.905
1000.42
1001.71
1002.78
1003.65
1004.3
1004.74
1004.97
1005
1004.83
1004.47
1003.91
1003.16
1002.22
1001.11
999.814
998.347
996.71
994.908
992.945
990.826
988.554
986.134
983.571
980.868
978.029
975.059
971.963
968.744
965.406
961.955
958.393
954.725
950.956
947.09
943.132
939.086
934.958
930.752
926.473
922.124
917.708
913.231
908.695
904.103
899.458
894.762
890.016
885.224
880.389
875.515
870.607
865.675
860.73
855.79
850.874
846.007
841.228
836.54
832.236
827.2
11506.5
1930.25
759.687
468.596
355.555
300.637
270.708
253.839
244.778
240.653
239.996
242.076
246.32
252.329
259.832
268.581
278.348
288.907
300.015
311.396
322.769
333.983
345.069
356.029
366.538
376.444
385.757
394.444
402.454
409.76
416.363
422.292
427.603
432.373
436.699
440.684
444.431
448.043
451.608
455.208
458.906
462.755
466.801
471.083
475.636
480.494
485.701
491.294
497.233
503.511
510.127
517.079
524.349
531.887
539.628
547.707
556.158
564.98
574.157
583.67
593.504
603.671
614.125
624.822
635.714
646.763
657.943
669.235
680.574
691.923
703.25
714.519
725.701
736.774
747.752
758.637
769.43
780.131
790.74
801.251
811.657
821.944
832.096
842.099
851.936
861.591
871.052
880.306
889.347
898.168
906.765
915.135
923.275
931.184
938.86
946.3
953.503
960.467
967.191
973.674
979.913
985.908
991.656
997.156
1002.41
1007.41
1012.16
1016.66
1020.9
1024.9
1028.64
1032.13
1035.36
1038.34
1041.07
1043.55
1045.78
1047.76
1049.5
1050.99
1052.23
1053.24
1054
1054.54
1054.83
1054.9
1054.75
1054.37
1053.77
1052.96
1051.93
1050.71
1049.28
1047.65
1045.84
1043.84
1041.65
1039.3
1036.77
1034.07
1031.21
1028.2
1025.04
1021.73
1018.27
1014.68
1010.96
1007.11
1003.13
999.034
994.823
990.501
986.074
981.546
976.923
972.21
967.413
962.537
957.587
952.567
947.482
942.338
937.138
931.885
926.584
921.236
915.844
910.411
904.938
899.431
893.893
888.333
882.758
877.185
871.63
866.111
860.669
855.273
850.271
844.247
11508.4
1918.75
757.157
468.936
357.362
303.469
274.411
258.319
249.925
246.29
246.047
248.412
252.782
258.724
265.937
274.149
283.118
292.618
302.43
312.342
322.248
331.998
341.255
349.987
358.362
366.43
374.143
381.418
388.218
394.539
400.406
405.86
410.956
415.766
420.368
424.847
429.287
433.773
438.391
443.241
448.362
453.764
459.469
465.508
471.894
478.615
485.603
492.79
500.326
508.264
516.622
525.402
534.606
544.256
554.4
564.99
575.995
587.387
599.133
611.199
623.556
636.178
649.023
662.052
675.156
688.262
701.307
714.231
727.028
739.682
752.168
764.468
776.568
788.471
800.193
811.755
823.178
834.486
845.695
856.814
867.841
878.761
889.556
900.201
910.673
920.944
930.992
940.8
950.357
959.654
968.687
977.454
985.951
994.179
1002.13
1009.82
1017.23
1024.36
1031.23
1037.81
1044.12
1050.16
1055.91
1061.39
1066.59
1071.5
1076.14
1080.5
1084.58
1088.37
1091.89
1095.13
1098.1
1100.78
1103.19
1105.33
1107.19
1108.78
1110.11
1111.16
1111.96
1112.49
1112.77
1112.79
1112.56
1112.09
1111.37
1110.41
1109.22
1107.8
1106.16
1104.3
1102.22
1099.94
1097.46
1094.79
1091.92
1088.87
1085.64
1082.24
1078.68
1074.95
1071.07
1067.04
1062.86
1058.54
1054.09
1049.5
1044.79
1039.95
1035
1029.94
1024.76
1019.49
1014.12
1008.66
1003.11
997.49
991.793
986.03
980.205
974.324
968.393
962.416
956.398
950.342
944.25
938.125
931.971
925.791
919.587
913.37
907.144
900.926
894.726
888.563
882.473
876.406
870.746
863.899
11509.4
1910.51
755.853
469.848
359.41
306.323
277.934
262.408
254.464
251.123
251.07
253.477
257.72
263.349
270.042
277.529
285.58
293.994
302.603
311.307
319.824
328.008
335.903
343.501
350.802
357.811
364.587
371.162
377.519
383.651
389.604
395.451
401.227
406.981
412.772
418.657
424.677
430.861
437.205
443.643
450.259
457.203
464.581
472.464
480.904
489.934
499.586
509.891
520.785
532.232
544.201
556.668
569.618
583.063
597.054
611.516
626.333
641.427
656.727
672.163
687.669
703.173
718.581
733.793
748.787
763.519
777.938
792.003
805.688
818.978
831.864
844.351
856.458
868.22
879.696
890.948
902.044
913.047
924.013
934.975
945.934
956.865
967.736
978.507
989.131
999.559
1009.75
1019.68
1029.32
1038.68
1047.73
1056.49
1064.94
1073.09
1080.93
1088.47
1095.71
1102.65
1109.28
1115.61
1121.64
1127.36
1132.78
1137.9
1142.71
1147.22
1151.42
1155.32
1158.92
1162.22
1165.22
1167.92
1170.33
1172.44
1174.25
1175.77
1177.01
1177.95
1178.61
1178.99
1179.1
1178.92
1178.47
1177.76
1176.78
1175.55
1174.05
1172.31
1170.33
1168.1
1165.64
1162.96
1160.06
1156.94
1153.62
1150.1
1146.38
1142.48
1138.4
1134.14
1129.72
1125.14
1120.4
1115.51
1110.48
1105.3
1100
1094.56
1089
1083.32
1077.53
1071.62
1065.61
1059.51
1053.3
1047.01
1040.64
1034.2
1027.69
1021.11
1014.48
1007.8
1001.07
994.311
987.519
980.699
973.855
966.992
960.111
953.219
946.316
939.416
932.518
925.646
918.796
912.001
905.274
898.58
892.286
884.776
11509.9
1903.84
755.069
470.891
361.381
308.945
281.075
265.956
258.302
255.12
255.1
257.396
261.377
266.587
272.709
279.495
286.743
294.299
301.983
309.647
317.282
324.846
332.321
339.704
347.001
354.225
361.39
368.482
375.535
382.569
389.514
396.37
403.271
410.345
417.695
425.385
433.449
441.905
450.783
460.156
470.081
480.613
491.831
503.825
516.638
530.284
544.777
560.12
576.177
592.814
609.927
627.434
645.265
663.348
681.578
699.888
718.247
736.598
754.883
773.04
791.006
808.712
826.088
843.064
859.59
875.618
891.104
906.007
920.297
933.952
946.959
959.317
971.045
982.185
992.803
1003
1012.89
1022.62
1032.32
1042.09
1051.97
1061.97
1072.05
1082.14
1092.18
1102.05
1111.68
1121.05
1130.11
1138.87
1147.3
1155.42
1163.21
1170.68
1177.83
1184.67
1191.18
1197.37
1203.23
1208.78
1214.01
1218.92
1223.5
1227.77
1231.73
1235.36
1238.68
1241.68
1244.37
1246.75
1248.82
1250.58
1252.04
1253.19
1254.04
1254.59
1254.84
1254.8
1254.47
1253.85
1252.95
1251.76
1250.3
1248.57
1246.57
1244.31
1241.79
1239.02
1236
1232.74
1229.25
1225.53
1221.59
1217.44
1213.09
1208.53
1203.79
1198.85
1193.75
1188.47
1183.02
1177.42
1171.67
1165.77
1159.74
1153.57
1147.28
1140.86
1134.33
1127.69
1120.94
1114.09
1107.15
1100.11
1092.99
1085.79
1078.52
1071.18
1063.77
1056.31
1048.81
1041.26
1033.69
1026.09
1018.47
1010.84
1003.2
995.565
987.926
980.297
972.674
965.077
957.497
949.969
942.471
935.062
927.709
920.434
913.519
905.495
11511.7
1899.44
754.721
471.945
363.237
311.394
283.99
269.227
261.817
258.762
258.746
260.925
264.675
269.56
275.304
281.702
288.554
295.715
303.118
310.694
318.415
326.276
334.265
342.354
350.546
358.879
367.399
376.148
385.095
394.146
403.38
412.98
423.04
433.691
445.04
457.116
469.902
483.389
497.599
512.577
528.361
544.982
562.494
580.928
600.131
619.946
640.226
660.84
681.732
702.856
724.157
745.574
767.035
788.468
809.791
830.926
851.812
872.389
892.6
912.394
931.724
950.537
968.789
986.436
1003.45
1019.81
1035.51
1050.53
1064.85
1078.48
1091.39
1103.58
1115.05
1125.8
1135.88
1145.37
1154.38
1163.07
1171.59
1180.07
1188.62
1197.25
1205.98
1214.73
1223.38
1231.84
1240.04
1247.94
1255.53
1262.8
1269.74
1276.36
1282.66
1288.63
1294.28
1299.61
1304.61
1309.29
1313.65
1317.68
1321.4
1324.8
1327.89
1330.66
1333.12
1335.26
1337.09
1338.62
1339.84
1340.76
1341.37
1341.69
1341.71
1341.43
1340.86
1340
1338.86
1337.43
1335.73
1333.74
1331.49
1328.97
1326.18
1323.13
1319.83
1316.28
1312.48
1308.44
1304.16
1299.66
1294.93
1289.99
1284.84
1279.48
1273.93
1268.19
1262.26
1256.16
1249.89
1243.45
1236.86
1230.12
1223.24
1216.22
1209.07
1201.8
1194.42
1186.92
1179.32
1171.61
1163.81
1155.92
1147.95
1139.89
1131.77
1123.57
1115.32
1107
1098.64
1090.25
1081.82
1073.36
1064.9
1056.42
1047.94
1039.47
1031.01
1022.57
1014.15
1005.76
997.402
989.096
980.823
972.637
964.485
956.471
948.491
940.671
933.124
924.702
11518.3
1894.18
753.67
472.649
364.956
313.867
287.087
272.858
265.886
263.15
263.396
265.785
269.703
274.732
280.618
287.16
294.258
301.894
310.084
318.773
328.02
338.003
348.751
359.902
371.304
383.101
395.491
408.58
422.213
436.333
451.171
466.861
483.492
501.1
519.666
539.167
559.588
580.931
603.205
626.431
650.599
675.615
701.319
727.571
754.296
781.261
808.247
835.071
861.584
887.671
913.242
938.222
962.544
986.151
1008.99
1031.04
1052.26
1072.64
1092.17
1110.86
1128.72
1145.74
1161.95
1177.35
1191.96
1205.8
1218.92
1231.33
1243.07
1254.14
1264.57
1274.39
1283.62
1292.28
1300.44
1308.19
1315.63
1322.87
1330
1337.09
1344.17
1351.19
1358.03
1364.62
1370.89
1376.85
1382.5
1387.84
1392.88
1397.61
1402.05
1406.2
1410.05
1413.61
1416.88
1419.86
1422.55
1424.96
1427.07
1428.9
1430.45
1431.72
1432.71
1433.42
1433.86
1434.02
1433.9
1433.52
1432.86
1431.93
1430.74
1429.29
1427.57
1425.59
1423.35
1420.86
1418.11
1415.11
1411.87
1408.38
1404.65
1400.68
1396.47
1392.03
1387.37
1382.49
1377.38
1372.06
1366.53
1360.79
1354.85
1348.72
1342.4
1335.89
1329.2
1322.34
1315.31
1308.12
1300.78
1293.29
1285.65
1277.87
1269.96
1261.93
1253.77
1245.49
1237.1
1228.61
1220.01
1211.33
1202.56
1193.72
1184.8
1175.82
1166.77
1157.67
1148.52
1139.32
1130.09
1120.82
1111.53
1102.22
1092.91
1083.6
1074.3
1065.02
1055.77
1046.55
1037.37
1028.24
1019.17
1010.17
1001.22
992.401
983.614
975.023
966.432
958.112
949.936
941.213
11527.1
1893.71
753.649
473.813
367.255
317.229
291.512
278.329
272.317
270.477
271.665
274.986
279.865
286.004
293.289
301.63
310.886
321.451
333.904
347.32
361.467
376.941
393.668
410.894
428.678
447.393
467.25
488.274
510.551
534.344
559.791
586.867
615.465
645.464
676.772
709.319
742.931
777.386
812.502
848.181
884.473
920.985
957.126
992.434
1026.6
1059.5
1091.02
1121.03
1149.47
1176.35
1201.66
1225.43
1247.69
1268.49
1287.88
1305.91
1322.65
1338.15
1352.5
1365.75
1377.99
1389.28
1399.7
1409.32
1418.23
1426.47
1434.1
1441.16
1447.67
1453.66
1459.16
1464.22
1468.9
1473.24
1477.34
1481.31
1485.26
1489.32
1493.48
1497.66
1501.69
1505.47
1508.91
1511.97
1514.69
1517.12
1519.28
1521.19