/*--------------------------------*- C++ -*----------------------------------*\
| =========                 |                                                 |
| \\      /  F ield         | OpenFOAM: The Open Source CFD Toolbox           |
|  \\    /   O peration     | Version:  2312                                  |
|   \\  /    A nd           | Website:  www.openfoam.com                      |
|    \\/     M anipulation  |                                                 |
\*---------------------------------------------------------------------------*/
FoamFile
{
    version     2.0;
    format      ascii;
    arch        "LSB;label=32;scalar=64";
    class       volScalarField;
    location    "0.2";
    object      omega;
}
// * * * * * * * * * * * * * * * * * * * * * * * * * * * * * * * * * * * * * //

dimensions      [0 0 -1 0 0 0 0];

internalField   nonuniform List<scalar> 
12225
(
38101.4
48434.6
92082.7
91273.3
81691.1
69769.9
63100.7
59721.9
58187.1
57568
57259.8
57094.8
56916.4
56758
56698.3
56516
56826.8
56327.6
2542.62
9270.39
33058
41390.2
40080.4
36952.9
34071.5
31949
30353.2
29149.9
28237.1
27501.7
26919.6
26432.4
26021.2
25708.4
25341.8
25245.6
585.625
1564.21
6544.52
14771.5
18302.6
19292.8
19230.1
19000
18567.8
18065.3
17571.7
17153
16794.4
16504.5
16216
16017.2
15753.8
15618.9
455.674
605.577
1405.19
3436.42
5666.62
7112.5
8086.03
8797.02
9308.84
9668.76
9896.18
10062.5
10151.1
10213.6
10236.3
10266.6
10271.6
10323.8
442.392
464.77
584.787
900.816
1550.76
2171.61
2670.59
3145.45
3528.06
3920.28
4201.71
4505.64
4686.63
4888.2
4986.19
5126.63
5191.88
5351.32
442.053
445.472
461.391
514.44
645.317
824.684
982.027
1155.84
1297.68
1455.85
1575.13
1707.99
1796.42
1909.4
1970.05
2059.51
2103.13
2205.19
441.968
442.568
444.209
452.392
474.928
520.547
567.805
628.867
679.006
737.297
783.515
836.837
876.716
927.724
958.523
996.507
1013.6
1051.48
439.776
438.923
439.537
441.73
446.049
455.255
467.86
488.44
505.51
526.634
543.922
565.253
583.137
605.569
621.201
637.718
644.649
658.595
439.966
439.513
440.046
441.422
442.268
443.483
445.651
450.611
454.773
460.686
465.527
472.509
479.174
488.515
495.998
503.86
507.154
513.337
440.685
439.966
440.237
440.805
440.977
441.114
441.128
441.294
441.308
441.251
441.38
441.918
443.055
445.641
448.599
451.802
453.185
455.411
441.006
441.408
440.374
438.76
438.495
438.727
438.81
438.61
437.967
436.283
434.193
432.692
432.152
432.199
432.551
433.176
433.299
433.583
442.753
441.448
439.245
436.793
436.366
436.511
436.628
436.477
435.873
434.191
432.019
430.303
429.241
428.758
428.524
428.3
427.735
426.911
442.087
442.268
439.791
436.365
435.169
434.732
434.461
434.079
433.301
431.928
430.363
429.041
428.184
427.764
427.444
427.016
426.049
424.6
440.646
440.018
437.886
436.366
434.971
433.758
432.955
432.267
431.278
429.932
428.585
427.589
427.019
426.731
426.475
426.039
425.046
423.354
441.518
441.22
440.668
439.291
436.105
433.264
431.687
431.01
430.489
429.412
427.722
426.349
425.501
425.036
424.511
423.703
422.406
420.852
440.219
439.174
437.621
436.832
435.961
433.963
431.521
430.098
429.121
428.043
426.746
425.566
424.537
423.583
422.507
421.227
419.811
418.359
440.576
439.524
439.821
440.119
439.536
436.696
432.425
429.401
427.567
426.579
426.005
425.544
425.022
424.291
423.332
422.143
420.925
419.649
439.887
438.09
437.517
437.349
436.851
435.272
432.466
429.843
427.673
425.969
424.653
423.642
423.04
422.629
422.395
422.049
421.566
420.976
439.337
438.501
436.972
435.195
434.439
434.059
433.176
430.807
428.411
426.482
424.687
422.805
420.883
419.135
417.776
416.903
416.528
416.424
439.785
438.258
436.189
434.657
433.728
432.815
431.828
430.766
429.608
428.335
426.932
425.356
423.596
421.679
419.718
417.827
416.234
415.069
439.816
438.278
436.304
434.861
432.751
430.922
430.347
430.347
430.46
430.405
429.992
428.518
426.298
424.166
422.075
420.067
418.305
416.924
439.957
439.087
437.731
435.586
432.659
430.956
430.712
430.905
431.728
432.205
432.2
431.846
430.549
428.262
425.907
423.636
421.717
420.253
440.858
439.659
439.362
438.742
435.666
432.832
432.379
432.638
434.054
436.791
438.268
438.542
438.308
436.695
434.543
433.479
433.332
433.3
440.087
439.039
439.242
439.05
436.829
435.007
435.271
436.811
440.93
450.021
460.614
466.94
472.343
475.024
479.401
483.353
490.839
496.792
440.929
439.928
440.169
442.133
445.294
450.279
459.836
477.64
514.389
562.538
613.099
644.61
673.861
692.309
719.638
742.665
777.519
804.998
440.66
442.177
446.616
458.742
486.897
547.661
660.029
822.597
1053.23
1261.06
1447.6
1562.09
1661.63
1729.33
1825.56
1910.98
2031.07
2130.04
442.961
465.693
514.392
619.424
863.765
1448.04
2380.76
3257.73
4005.87
4568.93
4978.77
5226.31
5408.65
5533.19
5689.44
5828.51
6007.27
6143
490.654
744.108
1126.97
1966.7
4067.99
8024.53
10827.3
12412.2
13224.5
13434.5
13399.5
13287.8
13105.2
12940.7
12811.5
12691.2
12597.2
12470.1
1423.08
4266.45
7409.01
11572.6
22708.7
30450.6
30384
29491
27751
26103.3
24711.3
23626.2
22812.2
22202.4
21735.5
21348.1
21028.5
20713.6
23524
28372.9
33853.4
42946.8
66843.6
69329.6
65330.6
56891.4
50500.2
46482.8
44274.6
43128.5
42537.4
42225.7
42009.8
41848.5
41674.4
41531.1
11463.2
2514.29
2516.61
2519.36
2523.09
2528.09
2534.03
2540.55
2547.31
2554.05
2560.59
2566.79
2572.59
2577.95
2582.85
2587.31
2591.34
2594.99
2598.27
2601.28
2603.98
2606.54
2609.08
2611.59
2614.24
2617.04
2620.1
2623.6
2627.69
2632.52
2638.19
2644.79
2652.38
2660.95
2670.43
2680.7
2691.62
2703.04
2714.85
2726.99
2739.46
2752.35
2765.78
2779.92
2794.89
2810.61
2826.32
2840.38
2850.8
2854.97
2857.33
2860.24
2864.64
2871.37
2880.54
2891.81
2912.39
2967.11
3100.1
3290.67
3510.36
3744.01
3983.11
4221.94
4457.08
4686.46
4908.88
5123.76
5330.91
5530.34
5722.19
5906.64
6083.91
6254.21
6417.63
6574.59
6725.45
6870.55
7010.21
7144.76
7274.48
7399.64
7520.47
7637.2
7750
7859.04
7964.45
8066.38
8164.86
8259.96
8351.71
8440.12
8525.21
8606.97
8685.39
8760.46
8832.19
8900.56
8965.58
9027.24
9085.55
9140.51
9192.12
9240.42
9285.41
9327.03
9365.2
9399.87
9430.97
9458.42
9482.2
9501.28
9516.25
9528.73
9535.98
9539.05
9537.61
9531.52
9520.66
9504.91
9484.2
9458.49
9427.77
9392.09
9351.56
9306.36
9256.7
9202.9
9145.23
9084.07
9019.82
8952.92
8883.9
8813.15
8741.09
8668.14
8594.66
8521
8447.47
8374.3
8301.65
8229.66
8158.37
8087.8
8017.91
7948.63
7879.85
7811.45
7743.31
7675.3
7607.32
7539.29
7471.14
7402.88
7334.52
7266.13
7197.82
7129.75
7062.07
6994.99
6928.73
6863.49
6799.47
6736.86
6675.82
6616.43
6558.8
6502.91
6448.7
6396.15
6347.29
6325.33
6356.64
6403.87
6450.8
6495.54
6538.78
6569.05
6606.29
6476.03
11463.3
2053.66
924.062
688.517
597.955
539.965
495.592
462.843
440.09
425.454
417.052
414.181
414.888
418.06
424.171
431.73
440.387
449.778
459.515
469.282
478.759
487.667
496.35
505.036
513.15
519.969
525.43
530.135
535.052
541.26
549.261
559.301
571.592
586.276
603.381
622.858
644.68
668.876
695.575
725.049
757.744
794.319
835.674
882.931
937.292
999.914
1071.57
1156.95
1261.43
1383.16
1514.97
1645.64
1764.99
1865.46
1942.57
1995.6
2029.95
2053.8
2077.6
2103.94
2130.02
2155.26
2179.29
2202.15
2223.92
2244.7
2264.67
2283.96
2302.7
2320.95
2338.76
2356.19
2373.26
2389.99
2406.35
2422.39
2438.15
2453.64
2468.86
2483.82
2498.49
2512.85
2526.87
2540.51
2553.74
2566.52
2578.81
2590.59
2601.81
2612.44
2622.45
2631.81
2640.51
2648.55
2655.93
2662.64
2668.69
2674.09
2678.86
2683
2686.52
2689.45
2691.77
2693.45
2694.42
2694.72
2694.43
2693.53
2691.9
2689.57
2686.95
2684.61
2682.09
2678.73
2674.49
2669.42
2663.53
2656.76
2649.15
2640.72
2631.54
2621.64
2611.09
2599.97
2588.34
2576.3
2563.91
2551.29
2538.49
2525.59
2512.66
2499.77
2486.97
2474.32
2461.83
2449.51
2437.36
2425.38
2413.56
2401.88
2390.29
2378.77
2367.27
2355.77
2344.22
2332.59
2320.88
2309.05
2297.12
2285.07
2272.94
2260.74
2248.5
2236.28
2224.11
2212.06
2200.16
2188.48
2177.06
2165.95
2155.16
2144.74
2134.68
2124.99
2115.64
2106.63
2097.91
2089.46
2081.26
2073.31
2066.08
2063.97
2069.98
2080.17
2091.14
2102.63
2114.7
2127.07
2142.96
2163.75
11463.3
2281.89
1086.36
740.417
563.882
448.864
371.478
318.278
281.583
256.252
238.998
227.852
221.265
218.178
218.12
219.427
222.646
227.442
233.323
240.076
247.514
255.494
264.006
273.06
282.557
292.413
302.657
313.478
325.209
338.254
352.99
369.771
388.963
410.93
436.008
464.603
497.23
534.439
576.69
624.372
677.699
736.579
800.556
868.773
939.537
1010.73
1080.71
1149.56
1217.13
1274.82
1311.71
1340.44
1359.85
1372.02
1377.91
1380
1379.97
1375.34
1369.79
1363.46
1357.34
1351.87
1347.31
1343.76
1341.35
1340.01
1339.42
1339.5
1340.59
1342.32
1344.66
1347.52
1350.83
1354.55
1358.59
1362.93
1367.51
1372.3
1377.26
1382.34
1387.52
1392.74
1397.99
1403.21
1408.4
1413.5
1418.51
1423.4
1428.14
1432.73
1437.14
1441.36
1445.38
1449.2
1452.81
1456.21
1459.39
1462.36
1465.12
1467.65
1469.97
1472.07
1473.96
1475.7
1477.34
1478.79
1479.98
1480.9
1481.55
1481.95
1482.18
1482.27
1482.2
1481.79
1481.1
1480.09
1478.77
1477.17
1475.28
1473.14
1470.75
1468.16
1465.38
1462.44
1459.37
1456.21
1452.97
1449.69
1446.39
1443.08
1439.78
1436.51
1433.27
1430.08
1426.91
1423.76
1420.62
1417.48
1414.32
1411.11
1407.85
1404.5
1401.06
1397.51
1393.84
1390.03
1386.09
1382.02
1377.83
1373.52
1369.12
1364.64
1360.11
1355.56
1351.01
1346.48
1342.02
1337.63
1333.33
1329.15
1325.09
1321.16
1317.35
1313.65
1310.05
1306.54
1303.11
1299.73
1296.41
1293.17
1290.19
1288.67
1289.45
1292.01
1295.31
1299.25
1303.76
1309.57
1317.57
1338.42
11463.4
2565.93
1200.47
759.69
536.74
405.626
324.327
271.978
237.474
214.641
199.612
189.766
183.625
180.366
179.439
180.108
182.29
186.081
191.116
197.292
204.545
212.868
222.263
232.706
244.193
256.759
270.501
285.596
302.306
320.958
341.885
365.369
391.504
420.45
452.729
488.781
529.164
574.399
623.936
676.968
732.101
787.124
839.497
889.319
936.299
980.429
1014.71
1033.55
1042.39
1046.21
1049.38
1050.35
1048.96
1045.36
1040.67
1035.11
1028.83
1021.82
1014.91
1008.27
1002.3
997.191
993.017
989.776
987.428
986.105
985.491
985.334
986.005
987.213
988.917
991.049
993.556
996.392
999.516
1002.89
1006.47
1010.22
1014.11
1018.11
1022.2
1026.33
1030.49
1034.65
1038.8
1042.92
1046.98
1050.98
1054.89
1058.73
1062.46
1066.09
1069.62
1073.02
1076.31
1079.48
1082.53
1085.44
1088.24
1090.9
1093.45
1095.89
1098.23
1100.44
1102.54
1104.51
1106.32
1107.97
1109.46
1110.8
1111.99
1113.04
1113.94
1114.65
1115.19
1115.54
1115.72
1115.73
1115.58
1115.28
1114.85
1114.29
1113.61
1112.83
1111.97
1111.03
1110.03
1108.98
1107.87
1106.73
1105.55
1104.33
1103.08
1101.8
1100.47
1099.1
1097.68
1096.18
1094.62
1092.97
1091.24
1089.4
1087.47
1085.42
1083.26
1080.98
1078.59
1076.09
1073.49
1070.8
1068.02
1065.18
1062.28
1059.34
1056.38
1053.42
1050.46
1047.52
1044.61
1041.75
1038.92
1036.15
1033.42
1030.73
1028.08
1025.46
1022.87
1020.3
1017.77
1015.28
1012.93
1011.14
1010.33
1010.41
1011.01
1012.21
1013.91
1016.7
1021.4
1034.72
11464.4
2741.57
1206.29
687.551
455.81
339.604
275.203
236.476
211.769
195.437
184.643
177.684
173.544
171.576
171.49
172.845
175.874
180.392
186.303
193.593
202.248
212.245
223.543
236.145
250.1
265.492
282.447
301.155
321.9
345.04
370.828
399.557
431.543
466.913
505.382
546.472
589.253
632.354
674.499
713.991
751.116
785.992
819.449
845.569
859.451
865.108
866.691
866.916
865.505
862.999
860.102
856.438
852.26
847.736
843.123
838.462
833.862
829.457
825.474
822.015
819.193
817.064
815.706
815.05
814.867
815.331
816.346
817.832
819.79
822.127
824.809
827.793
831.039
834.514
838.185
842.022
845.994
850.076
854.24
858.465
862.727
867.007
871.288
875.552
879.786
883.977
888.115
892.192
896.2
900.133
903.986
907.755
911.437
915.028
918.525
921.924
925.224
928.421
931.514
934.506
937.405
940.204
942.898
945.483
947.957
950.311
952.536
954.628
956.585
958.408
960.097
961.652
963.067
964.339
965.465
966.449
967.296
968.011
968.598
969.063
969.412
969.649
969.783
969.81
969.75
969.596
969.352
969.031
968.625
968.134
967.559
966.902
966.163
965.339
964.425
963.419
962.319
961.122
959.827
958.43
956.932
955.331
953.628
951.827
949.928
947.931
945.841
943.661
941.397
939.055
936.643
934.168
931.638
929.062
926.449
923.805
921.14
918.461
915.775
913.086
910.4
907.719
905.047
902.385
899.732
897.091
894.463
891.857
889.28
886.76
884.343
882.211
880.564
879.44
878.725
878.478
878.668
879.708
882.269
889.998
11467.2
2759.7
1090.12
587.489
392.545
300.223
249.794
219.7
200.721
188.409
180.361
175.481
173.132
172.898
174.371
177.516
182.182
188.306
195.859
204.838
215.276
227.231
240.783
256.002
272.954
291.728
312.432
335.181
360.067
387.136
416.463
447.945
481.254
515.765
550.56
584.496
616.321
646.141
674.173
701.11
723.09
737.374
744.043
746.694
747.424
746.965
745.114
742.893
740.254
737.469
734.618
731.671
728.745
725.915
723.267
720.847
718.727
716.997
715.72
715.055
714.83
715.093
715.947
717.278
719.051
721.273
723.886
726.853
730.143
733.713
737.531
741.566
745.787
750.166
754.677
759.294
763.993
768.753
773.551
778.37
783.191
787.998
792.777
797.516
802.205
806.836
811.402
815.897
820.317
824.66
828.922
833.101
837.196
841.203
845.121
848.948
852.679
856.31
859.84
863.277
866.613
869.843
872.963
875.967
878.851
881.61
884.239
886.735
889.095
891.318
893.404
895.352
897.163
898.835
900.372
901.775
903.049
904.197
905.223
906.129
906.917
907.59
908.149
908.593
908.924
909.142
909.226
909.211
909.074
908.808
908.414
907.891
907.24
906.455
905.539
904.492
903.315
902.012
900.587
899.043
897.388
895.625
893.762
891.807
889.769
887.647
885.448
883.177
880.838
878.436
875.974
873.456
870.886
868.265
865.596
862.881
860.123
857.325
854.489
851.618
848.717
845.789
842.84
839.876
836.903
833.928
830.961
828.014
825.104
822.25
819.489
816.909
814.623
812.684
811.069
809.828
808.968
808.871
809.799
813.724
11472
2596.74
952.219
514.983
354.134
278.788
237.667
213.127
197.605
187.85
182.179
179.507
179.183
180.823
184.198
189.185
195.713
203.753
213.308
224.399
237.065
251.352
267.309
284.979
304.387
325.543
348.425
372.96
398.989
426.243
454.318
482.646
510.517
537.117
562.189
585.895
608.739
628.469
643.5
652.484
657.703
660.261
661.236
661.31
660.368
659.02
657.401
655.756
654.104
652.531
651.057
649.71
648.539
647.589
646.954
646.664
646.617
647.024
647.873
649.175
650.909
653.087
655.697
658.7
662.072
665.792
669.822
674.134
678.698
683.482
688.457
693.597
698.873
704.261
709.737
715.277
720.861
726.467
732.078
737.675
743.244
748.771
754.243
759.652
764.988
770.248
775.425
780.518
785.524
790.443
795.272
800.011
804.66
809.217
813.68
818.05
822.325
826.503
830.586
834.563
838.426
842.17
845.789
849.276
852.627
855.837
858.898
861.807
864.56
867.161
869.611
871.911
874.063
876.069
877.933
879.658
881.249
882.709
884.04
885.244
886.321
887.27
888.09
888.777
889.329
889.74
889.996
890.097
890.061
889.852
889.472
888.921
888.197
887.299
886.228
884.989
883.588
882.032
880.33
878.493
876.532
874.457
872.279
870.001
867.631
865.19
862.688
860.131
857.522
854.867
852.166
849.42
846.627
843.784
840.888
837.935
834.922
831.846
828.706
825.501
822.234
818.908
815.531
812.113
808.666
805.202
801.738
798.294
794.891
791.553
788.307
785.209
782.325
779.704
777.356
775.315
773.597
772.447
772.154
773.448
11478
2356.49
839.742
468.335
333.12
268.891
233.492
212.293
199.547
192.245
188.762
188.043
189.567
193.032
198.236
205.061
213.448
223.37
234.821
247.803
262.32
278.368
295.925
314.936
335.299
356.852
379.362
402.514
425.923
449.15
471.698
493.171
513.691
533.468
551.643
566.83
577.558
585.22
590.483
593.966
595.721
596.476
596.682
596.495
595.991
595.427
594.884
594.433
594.129
594.001
593.992
594.213
594.681
595.427
596.488
597.882
599.625
601.772
604.326
607.287
610.651
614.41
618.543
623.024
627.83
632.933
638.307
643.921
649.75
655.765
661.937
668.238
674.641
681.121
687.656
694.221
700.797
707.365
713.905
720.402
726.841
733.214
739.506
745.708
751.815
757.822
763.729
769.533
775.233
780.831
786.327
791.72
797.012
802.2
807.284
812.264
817.143
821.912
826.563
831.087
835.478
839.73
843.836
847.79
851.587
855.221
858.688
861.986
865.113
868.071
870.859
873.48
875.938
878.236
880.378
882.369
884.213
885.914
887.474
888.895
890.173
891.308
892.295
893.128
893.8
894.303
894.617
894.743
894.691
894.424
893.942
893.242
892.322
891.182
889.826
888.261
886.498
884.551
882.435
880.167
877.764
875.245
872.624
869.919
867.145
864.314
861.434
858.516
855.562
852.577
849.561
846.512
843.425
840.292
837.105
833.855
830.533
827.13
823.64
820.058
816.383
812.619
808.774
804.86
800.893
796.893
792.882
788.886
784.934
781.052
777.271
773.63
770.174
766.929
763.906
761.152
758.68
756.651
755.217
754.712
11484
2111.01
766.105
444.376
323.902
265.89
234.012
215.678
205.244
200.035
198.382
199.34
202.547
207.674
214.522
222.966
232.928
244.354
257.196
271.387
286.851
303.492
321.173
339.704
358.845
378.316
397.808
416.995
435.519
453.373
470.648
487.267
502.059
513.969
523.282
530.501
536.236
540.36
543.227
545.147
546.368
547.192
547.797
548.28
548.737
549.262
549.904
550.699
551.678
552.86
554.26
555.921
557.865
560.117
562.703
565.64
568.947
572.642
576.731
581.212
586.081
591.326
596.92
602.839
609.056
615.546
622.279
629.227
636.361
643.665
651.1
658.631
666.234
673.882
681.551
689.218
696.865
704.472
712.023
719.498
726.881
734.148
741.311
748.365
755.305
762.128
768.832
775.417
781.883
788.231
794.463
800.581
806.583
812.469
818.236
823.881
829.393
834.772
840.011
845.103
850.042
854.818
859.426
863.858
868.109
872.174
876.048
879.731
883.221
886.518
889.626
892.549
895.288
897.851
900.242
902.466
904.528
906.433
908.183
909.779
911.217
912.495
913.607
914.543
915.293
915.847
916.172
916.284
916.163
915.785
915.142
914.229
913.041
911.579
909.848
907.858
905.626
903.173
900.521
897.695
894.723
891.629
888.437
885.169
881.845
878.481
875.09
871.682
868.262
864.834
861.397
857.949
854.479
850.975
847.424
843.809
840.113
836.322
832.42
828.397
824.246
819.968
815.57
811.068
806.482
801.838
797.168
792.505
787.885
783.345
778.919
774.64
770.546
766.67
763.029
759.645
756.525
753.773
751.474
749.563
11488.9
1951.39
733.079
434.608
321.377
267.081
237.972
221.746
213.239
209.785
209.529
211.957
216.58
223.062
231.183
240.789
251.765
264.01
277.385
291.711
306.817
322.506
338.609
354.909
371.177
387.17
402.704
417.835
432.692
446.609
458.877
469.071
477.644
484.942
490.902
495.668
499.468
502.424
504.742
506.61
508.192
509.634
511.031
512.449
513.951
515.589
517.397
519.405
521.639
524.122
526.879
529.938
533.322
537.055
541.155
545.63
550.489
555.737
561.376
567.401
573.81
580.616
587.756
595.2
602.919
610.884
619.063
627.42
635.906
644.452
653.074
661.78
670.548
679.347
688.148
696.926
705.662
714.337
722.935
731.441
739.843
748.141
756.309
764.337
772.219
779.952
787.537
794.973
802.264
809.41
816.416
823.281
830.006
836.591
843.031
849.323
855.46
861.44
867.255
872.898
878.361
883.634
888.709
893.579
898.238
902.682
906.91
910.92
914.713
918.293
921.664
924.831
927.799
930.575
933.164
935.573
937.808
939.872
941.767
943.495
945.053
946.435
947.634
948.638
949.433
950.004
950.315
950.38
950.159
949.633
948.79
947.617
946.107
944.257
942.073
939.568
936.763
933.686
930.37
926.852
923.168
919.355
915.446
911.474
907.463
903.436
899.409
895.396
891.403
887.435
883.492
879.568
875.65
871.722
867.764
863.751
859.658
855.46
851.134
846.658
842.016
837.203
832.223
827.093
821.836
816.486
811.083
805.672
800.302
795.016
789.859
784.866
780.072
775.508
771.193
767.142
763.354
759.893
756.811
753.678
11493.2
1908.09
720.439
431.756
322.567
270.932
243.777
229.247
222.308
220.115
221.036
224.601
230.256
237.637
246.484
256.601
267.82
279.982
292.892
306.275
319.771
333.319
346.91
360.326
373.498
386.478
399.198
411.053
421.455
430.657
438.806
445.98
452.158
457.46
461.963
465.787
469.067
471.919
474.47
476.837
479.122
481.407
483.757
486.221
488.848
491.675
494.736
498.06
501.664
505.57
509.801
514.382
519.337
524.701
530.532
536.767
543.398
550.417
557.812
565.556
573.595
581.818
590.348
599.197
608.337
617.732
627.348
637.148
647.095
657.168
667.315
677.489
687.665
697.814
707.892
717.879
727.762
737.534
747.188
756.714
766.102
775.34
784.42
793.339
802.091
810.673
819.083
827.32
835.388
843.287
851.021
858.59
865.995
873.235
880.305
887.2
893.914
900.44
906.771
912.897
918.809
924.496
929.948
935.156
940.115
944.822
949.278
953.485
957.45
961.182
964.687
967.976
971.056
973.936
976.623
979.125
981.447
983.594
985.565
987.361
988.978
990.41
991.648
992.678
993.483
994.039
994.316
994.308
993.968
993.277
992.212
990.754
988.889
986.611
983.921
980.831
977.365
973.557
969.452
965.099
960.55
955.856
951.063
946.216
941.352
936.503
931.691
926.933
922.236
917.612
913.059
908.571
904.132
899.722
895.314
890.877
886.373
881.769
877.027
872.111
866.993
861.655
856.095
850.326
844.372
838.274
832.082
825.855
819.655
813.541
807.568
801.781
796.218
790.911
785.88
781.136
776.672
772.519
768.728
764.546
11496.5
1885.12
714.575
431.863
325.739
275.993
250.311
237.166
231.43
230.104
231.896
236.199
242.428
250.176
259.145
269.092
279.808
291.093
302.73
314.461
326.032
337.297
348.258
359.194
369.976
380.065
389.245
397.651
405.409
412.411
418.701
424.338
429.374
433.889
437.963
441.685
445.147
448.437
451.642
454.843
458.107
461.489
465.037
468.792
472.797
477.09
481.721
486.768
492.163
497.906
504.011
510.488
517.333
524.505
531.874
539.659
547.908
556.616
565.765
575.331
585.299
595.694
606.439
617.475
628.741
640.184
651.758
663.439
675.166
686.872
698.505
710.02
721.379
732.562
743.576
754.418
765.096
775.62
786.004
796.253
806.367
816.339
826.165
835.836
845.339
854.662
863.798
872.746
881.504
890.073
898.455
906.65
914.655
922.467
930.082
937.49
944.684
951.652
958.386
964.875
971.106
977.067
982.746
988.132
993.219
998.001
1002.48
1006.66
1010.57
1014.22
1017.63
1020.81
1023.78
1026.56
1029.14
1031.56
1033.8
1035.89
1037.81
1039.56
1041.13
1042.51
1043.71
1044.7
1045.46
1045.96
1046.17
1046.06
1045.59
1044.73
1043.45
1041.71
1039.49
1036.77
1033.56
1029.86
1025.69
1021.09
1016.09
1010.78
1005.22
999.48
993.621
987.706
981.79
975.92
970.133
964.45
958.878
953.441
948.144
942.974
937.914
932.942
928.026
923.127
918.199
913.193
908.057
902.738
897.188
891.371
885.271
878.891
872.252
865.397
858.385
851.29
844.192
837.173
830.302
823.636
817.227
811.11
805.308
799.831
794.667
789.823
785.367
780.27
11498.8
1868.11
711.861
433.723
329.755
281.385
256.857
244.742
239.853
239.082
241.385
246.023
252.374
260.002
268.577
277.837
287.558
297.541
307.593
317.522
327.175
336.603
345.714
354.17
362.112
369.733
376.972
383.749
390.066
395.929
401.378
406.466
411.246
415.778
420.128
424.364
428.556
432.777
437.106
441.636
446.461
451.54
456.9
462.57
468.568
474.888
481.465
488.124
495.125
502.554
510.442
518.808
527.68
537.099
547.174
557.841
569.076
580.863
593.135
605.842
618.936
632.375
646.088
659.978
673.894
687.737
701.427
714.877
728.049
740.928
753.489
765.716
777.607
789.175
800.448
811.443
822.187
832.737
843.15
853.469
863.717
873.898
884.021
894.075
904.018
913.806
923.419
932.846
942.083
951.127
959.974
968.62
977.064
985.296
993.305
1001.08
1008.6
1015.85
1022.83
1029.5
1035.87
1041.91
1047.61
1052.96
1057.95
1062.57
1066.82
1070.67
1074.2
1077.43
1080.4
1083.12
1085.62
1087.92
1090.06
1092.05
1093.91
1095.65
1097.27
1098.76
1100.09
1101.26
1102.26
1103.09
1103.7
1104.06
1104.13
1103.89
1103.26
1102.22
1100.74
1098.75
1096.22
1093.11
1089.41
1085.13
1080.28
1074.9
1069
1062.67
1056
1049.08
1041.99
1034.81
1027.62
1020.5
1013.49
1006.66
999.989
993.527
987.294
981.28
975.45
969.794
964.279
958.852
953.463
948.049
942.542
936.867
930.951
924.736
918.18
911.267
904.004
896.43
888.61
880.629
872.59
864.599
856.75
849.122
841.783
834.78
828.142
821.878
815.979
810.427
805.329
799.418
11500.2
1856.34
710.94
436.228
333.877
286.562
262.897
251.481
247.119
246.64
249.134
253.763
259.882
267.041
274.905
283.216
291.768
300.395
308.961
317.358
325.573
333.3
340.558
347.543
354.222
360.631
366.837
372.874
378.733
384.423
389.998
395.536
401.041
406.558
412.137
417.812
423.609
429.553
435.653
441.868
448.132
454.723
461.728
469.208
477.227
485.87
495.179
505.149
515.699
526.831
538.558
550.897
563.88
577.575
592.141
607.424
623.282
639.619
656.294
673.214
690.274
707.356
724.309
741.023
757.45
773.5
789.081
804.107
818.507
832.225
845.212
857.434
868.884
879.591
889.653
899.171
908.279
917.177
926.011
934.905
943.948
953.125
962.493
972.079
981.775
991.425
1000.96
1010.36
1019.62
1028.71
1037.63
1046.38
1054.94
1063.3
1071.43
1079.32
1086.94
1094.26
1101.25
1107.9
1114.18
1120.07
1125.55
1130.6
1135.22
1139.41
1143.16
1146.49
1149.41
1151.95
1154.13
1156
1157.58
1158.92
1160.08
1161.07
1161.96
1162.76
1163.5
1164.21
1164.87
1165.47
1165.99
1166.4
1166.67
1166.73
1166.53
1166.03
1165.17
1163.93
1162.24
1160.05
1157.27
1153.87
1149.77
1145.01
1139.58
1133.52
1126.87
1119.67
1111.98
1103.89
1095.51
1086.92
1078.25
1069.59
1061.04
1052.7
1044.63
1036.86
1029.43
1022.33
1015.52
1008.99
1002.73
996.656
990.721
984.859
978.979
972.984
966.778
960.269
953.382
946.066
938.303
930.114
921.56
912.732
903.75
894.75
885.86
877.189
868.832
860.859
853.308
846.189
839.504
833.213
827.474
820.829
11500.8
1847.54
710.861
438.832
337.732
291.246
268.174
257.178
253.095
252.724
255.186
259.585
265.274
271.818
278.9
286.288
293.815
301.371
308.899
316.209
323.285
330.227
337.031
343.745
350.402
357.038
363.679
370.308
376.94
383.6
390.21
396.751
403.405
410.275
417.472
424.955
432.717
440.783
449.196
458.032
467.42
477.386
488.018
499.407
511.662
524.931
539.204
554.475
570.487
587.16
604.463
622.368
640.841
659.82
679.152
698.792
718.686
738.715
758.819
778.913
798.907
818.701
838.187
857.259
875.829
893.805
911.094
927.604
943.245
957.931
971.574
984.095
995.431
1005.56
1014.61
1022.7
1029.86
1036.51
1042.89
1049.18
1055.55
1062.09
1069.02
1076.63
1084.98
1093.47
1101.93
1110.32
1118.62
1126.83
1134.95
1142.97
1150.87
1158.65
1166.27
1173.72
1180.95
1187.92
1194.6
1200.95
1206.92
1212.5
1217.62
1222.27
1226.41
1230.03
1233.14
1235.74
1237.79
1239.32
1240.34
1240.9
1241.05
1240.89
1240.45
1239.79
1239.01
1238.16
1237.3
1236.47
1235.72
1235.03
1234.38
1233.75
1233.1
1232.41
1231.61
1230.63
1229.39
1227.82
1225.86
1223.42
1220.45
1216.88
1212.63
1207.67
1201.96
1195.51
1188.33
1180.47
1171.94
1162.83
1153.25
1143.29
1133.1
1122.79
1112.51
1102.38
1092.54
1083.04
1073.95
1065.32
1057.18
1049.51
1042.26
1035.35
1028.71
1022.29
1015.98
1009.66
1003.21
996.514
989.443
981.902
973.825
965.2
956.07
946.518
936.668
926.679
916.72
906.945
897.488
888.453
879.899
871.842
864.304
857.225
850.822
843.501
11502
1841.86
711.465
441.411
341.311
295.512
272.845
262.119
258.212
257.872
260.219
264.345
269.622
275.654
282.17
289.01
296.046
303.154
310.258
317.428
324.63
331.926
339.327
346.825
354.474
362.366
370.61
379.11
387.728
396.474
405.444
414.806
424.609
435.017
446.114
457.672
469.709
482.274
495.435
509.285
523.926
539.41
555.853
573.34
591.689
610.721
630.256
650.234
670.81
691.99
713.737
735.993
758.685
781.716
804.966
828.327
851.696
874.962
898.023
920.777
943.119
964.948
986.163
1006.67
1026.4
1045.26
1063.21
1080.17
1096.11
1110.96
1124.67
1137.19
1148.42
1158.18
1166.6
1174.1
1180.79
1186.76
1192.12
1196.97
1201.41
1205.66
1210.02
1214.89
1220.56
1226.37
1232.18
1237.99
1243.81
1249.66
1255.55
1261.5
1267.5
1273.54
1279.59
1285.64
1291.63
1297.5
1303.2
1308.68
1313.88
1318.73
1323.16
1327.1
1330.5
1333.29
1335.44
1336.91
1337.68
1337.76
1337.28
1336.14
1334.5
1332.44
1330.01
1327.32
1324.46
1321.51
1318.56
1315.66
1312.85
1310.17
1307.65
1305.28
1303.07
1301
1299.02
1297.05
1295
1292.77
1290.3
1287.48
1284.22
1280.45
1276.07
1270.97
1265.07
1258.33
1250.73
1242.31
1233.11
1223.2
1212.69
1201.68
1190.27
1178.6
1166.81
1155.02
1143.36
1131.95
1120.91
1110.37
1100.44
1091.11
1082.39
1074.26
1066.64
1059.44
1052.54
1045.8
1039.09
1032.25
1025.11
1017.52
1009.36
1000.54
991.069
981.005
970.455
959.581
948.591
937.69
927.058
916.851
907.179
898.074
889.583
881.639
874.51
866.539
11507.8
1836.16
711.385
443.322
344.305
299.218
277.059
266.763
263.187
263.028
265.517
269.715
275.071
281.208
287.861
294.859
302.15
309.791
317.812
326.235
335.252
345.146
355.776
366.577
377.713
389.526
402.199
415.355
428.83
442.85
457.553
472.976
489.117
505.945
523.319
541.306
559.924
579.211
599.228
620.049
641.749
664.289
687.608
711.732
736.541
761.879
787.627
813.692
840.035
866.597
893.297
920.039
946.718
973.222
999.433
1025.24
1050.55
1075.25
1099.26
1122.5
1144.87
1166.32
1186.76
1206.16
1224.46
1241.63
1257.66
1272.53
1286.25
1298.82
1310.26
1320.58
1329.76
1337.69
1344.19
1349.69
1354.42
1358.37
1361.67
1364.51
1366.98
1369.37
1372.02
1374.47
1376.26
1377.85
1379.41
1381.07
1382.89
1384.93
1387.22
1389.78
1392.6
1395.67
1398.98
1402.48
1406.12
1409.84
1413.56
1417.2
1420.7
1423.97
1426.93
1429.46
1431.49
1432.95
1433.76
1433.89
1433.4
1432.08
1430.08
1427.44
1424.23
1420.5
1416.33
1411.81
1407.04
1402.14
1397.2
1392.29
1387.48
1382.82
1378.36
1374.13
1370.14
1366.4
1362.85
1359.45
1356.15
1352.86
1349.5
1345.95
1342.1
1337.82
1332.97
1327.45
1321.17
1314.07
1306.14
1297.38
1287.85
1277.6
1266.71
1255.24
1243.29
1230.96
1218.35
1205.57
1192.75
1180
1167.46
1155.27
1143.55
1132.41
1121.93
1112.2
1103.17
1094.79
1086.99
1079.65
1072.58
1065.58
1058.43
1050.95
1042.95
1034.3
1024.89
1014.71
1003.82
992.359
980.539
968.602
956.781
945.298
934.352
924.08
914.534
905.645
897.716
889.108
11516
1836.52
712.182
445.229
347.206
303.084
281.938
272.61
269.795
270.495
273.89
279.04
285.403
292.707
300.872
309.825
319.578
330.735
343.763
357.328
371.944
388.322
405.778
423.498
442.109
461.876
482.713
504.658
527.891
552.421
578.135
604.837
632.315
660.365
688.823
717.664
746.803
776.167
805.757
835.653
866.2
897.022
927.827
958.297
988.5
1018.4
1047.89
1076.94
1105.53
1133.62
1161.17
1188.12
1214.42
1239.98
1264.74
1288.64
1311.61
1333.6
1354.55
1374.43
1393.19
1410.78
1427.19
1442.38
1456.33
1469.04
1480.52
1490.77
1499.85
1507.79
1514.67
1520.59
1525.7
1530.33
1534.31
1537.18
1538.55
1538.72
1538.31
1537.44
1536.29
1534.97
1533.41
1531.33
1528.32
1525.02
1521.73
1518.62
1515.8
1513.37
1511.36