/*--------------------------------*- C++ -*----------------------------------*\
| =========                 |                                                 |
| \\      /  F ield         | OpenFOAM: The Open Source CFD Toolbox           |
|  \\    /   O peration     | Version:  2312                                  |
|   \\  /    A nd           | Website:  www.openfoam.com                      |
|    \\/     M anipulation  |                                                 |
\*---------------------------------------------------------------------------*/
FoamFile
{
    version     2.0;
    format      ascii;
    arch        "LSB;label=32;scalar=64";
    class       volScalarField;
    location    "0.2";
    object      p;
}
// * * * * * * * * * * * * * * * * * * * * * * * * * * * * * * * * * * * * * //

dimensions      [0 2 -2 0 0 0 0];

internalField   nonuniform List<scalar> 
12225
(
-263.881
-265.188
-267.851
-272.993
-276.122
-276.664
-275.827
-274.616
-273.388
-272.182
-270.966
-269.71
-268.408
-267.061
-265.665
-264.216
-262.642
-260.85
-264.41
-265.59
-268.347
-273.008
-276.005
-276.585
-275.778
-274.588
-273.373
-272.179
-270.97
-269.716
-268.415
-267.067
-265.678
-264.234
-262.695
-260.939
-264.822
-266.215
-268.939
-272.928
-275.626
-276.274
-275.607
-274.505
-273.333
-272.157
-270.955
-269.706
-268.411
-267.07
-265.683
-264.246
-262.702
-261.02
-264.749
-266.745
-269.467
-272.912
-275.335
-276.023
-275.485
-274.463
-273.327
-272.164
-270.964
-269.717
-268.423
-267.088
-265.705
-264.277
-262.76
-261.158
-264.78
-267.206
-270.01
-273.048
-275.187
-275.843
-275.387
-274.434
-273.335
-272.186
-270.992
-269.746
-268.454
-267.123
-265.75
-264.337
-262.864
-261.348
-264.368
-267.651
-270.604
-273.305
-275.164
-275.738
-275.326
-274.432
-273.365
-272.228
-271.035
-269.79
-268.499
-267.174
-265.814
-264.424
-262.999
-261.563
-262.809
-268.137
-271.296
-273.676
-275.247
-275.715
-275.317
-274.466
-273.426
-272.296
-271.102
-269.856
-268.568
-267.249
-265.905
-264.542
-263.165
-261.801
-262.446
-268.939
-272.125
-274.176
-275.453
-275.795
-275.379
-274.548
-273.521
-272.393
-271.196
-269.948
-268.663
-267.353
-266.027
-264.693
-263.363
-262.059
-262.592
-270.072
-273.124
-274.831
-275.807
-275.996
-275.53
-274.687
-273.658
-272.524
-271.321
-270.07
-268.788
-267.487
-266.18
-264.876
-263.587
-262.333
-267.343
-271.851
-274.356
-275.679
-276.331
-276.329
-275.779
-274.897
-273.845
-272.695
-271.481
-270.226
-268.946
-267.655
-266.366
-265.088
-263.835
-262.623
-269.112
-273.976
-275.896
-276.753
-277.029
-276.793
-276.127
-275.184
-274.091
-272.915
-271.685
-270.422
-269.142
-267.859
-266.585
-265.331
-264.108
-262.928
-274.217
-276.647
-277.605
-277.913
-277.816
-277.339
-276.538
-275.518
-274.375
-273.165
-271.914
-270.64
-269.358
-268.079
-266.817
-265.581
-264.38
-263.224
-280.472
-279.619
-279.523
-279.212
-278.713
-277.979
-277.023
-275.91
-274.708
-273.458
-272.181
-270.892
-269.604
-268.327
-267.074
-265.851
-264.667
-263.53
-285.468
-283.148
-281.865
-280.839
-279.87
-278.825
-277.671
-276.436
-275.155
-273.85
-272.537
-271.226
-269.927
-268.65
-267.401
-266.19
-265.021
-263.899
-286.341
-286.318
-284.682
-282.888
-281.373
-279.954
-278.551
-277.154
-275.762
-274.379
-273.014
-271.67
-270.353
-269.067
-267.819
-266.613
-265.453
-264.343
-302.391
-292.776
-288.135
-285.288
-283.134
-281.299
-279.618
-278.035
-276.515
-275.048
-273.622
-272.238
-270.894
-269.593
-268.337
-267.131
-265.974
-264.868
-304.464
-296.022
-291.027
-287.653
-285.037
-282.845
-280.9
-279.127
-277.468
-275.905
-274.404
-272.964
-271.581
-270.252
-268.979
-267.761
-266.598
-265.488
-295.28
-295.65
-292.953
-289.684
-286.903
-284.495
-282.342
-280.4
-278.617
-276.937
-275.354
-273.848
-272.418
-271.052
-269.751
-268.511
-267.331
-266.208
-313.173
-301.401
-295.312
-291.385
-288.431
-285.931
-283.704
-281.683
-279.815
-278.065
-276.412
-274.852
-273.373
-271.974
-270.645
-269.382
-268.181
-267.041
-291.813
-295.741
-294.5
-292.004
-289.452
-287.058
-284.834
-282.775
-280.862
-279.064
-277.362
-275.752
-274.229
-272.787
-271.422
-270.127
-268.898
-267.731
-302.186
-297.322
-294.589
-292.148
-289.796
-287.554
-285.437
-283.444
-281.555
-279.75
-278.027
-276.39
-274.838
-273.368
-271.976
-270.659
-269.41
-268.227
-295.559
-296.604
-294.961
-292.607
-290.276
-288.075
-286.005
-284.05
-282.171
-280.349
-278.594
-276.92
-275.335
-273.835
-272.417
-271.075
-269.806
-268.605
-298.452
-297.987
-295.633
-293.008
-290.591
-288.433
-286.449
-284.556
-282.696
-280.858
-279.067
-277.355
-275.735
-274.206
-272.762
-271.399
-270.111
-268.895
-305.906
-300.104
-296.345
-293.301
-290.801
-288.702
-286.839
-285.037
-283.193
-281.316
-279.473
-277.717
-276.06
-274.5
-273.031
-271.647
-270.343
-269.113
-310.007
-301.348
-296.722
-293.387
-290.841
-288.865
-287.189
-285.504
-283.669
-281.741
-279.836
-278.026
-276.325
-274.73
-273.234
-271.83
-270.511
-269.27
-308.444
-301.107
-296.648
-293.237
-290.718
-288.952
-287.52
-285.964
-284.133
-282.146
-280.172
-278.299
-276.548
-274.913
-273.387
-271.963
-270.631
-269.381
-305.357
-300.619
-296.361
-292.9
-290.472
-289.044
-287.906
-286.449
-284.577
-282.508
-280.46
-278.528
-276.726
-275.053
-273.499
-272.056
-270.713
-269.456
-303.536
-299.814
-295.898
-292.329
-290.049
-289.164
-288.406
-287.002
-285.014
-282.819
-280.68
-278.682
-276.836
-275.135
-273.566
-272.115
-270.769
-269.51
-302.758
-299.309
-295.484
-291.639
-289.429
-289.24
-288.94
-287.597
-285.481
-283.151
-280.898
-278.817
-276.924
-275.201
-273.626
-272.176
-270.833
-269.578
-300.573
-298.865
-295.094
-291.166
-288.978
-289.229
-289.11
-287.75
-285.622
-283.28
-280.998
-278.888
-276.976
-275.242
-273.66
-272.204
-270.856
-269.597
-241.334
-241.324
-241.305
-241.276
-241.238
-241.189
-241.131
-241.064
-240.986
-240.899
-240.801
-240.692
-240.573
-240.442
-240.301
-240.148
-239.984
-239.808
-239.621
-239.422
-239.211
-238.989
-238.755
-238.51
-238.254
-237.986
-237.707
-237.417
-237.116
-236.804
-236.482
-236.149
-235.806
-235.453
-235.09
-234.718
-234.336
-233.944
-233.544
-233.134
-232.716
-232.29
-231.855
-231.412
-230.961
-230.503
-230.037
-229.564
-229.083
-228.595
-228.098
-227.593
-227.08
-226.555
-226.019
-225.469
-224.907
-224.338
-223.766
-223.193
-222.617
-222.037
-221.449
-220.854
-220.248
-219.632
-219.004
-218.363
-217.709
-217.042
-216.361
-215.666
-214.956
-214.232
-213.494
-212.742
-211.976
-211.197
-210.404
-209.599
-208.78
-207.95
-207.107
-206.253
-205.387
-204.51
-203.622
-202.722
-201.812
-200.89
-199.957
-199.013
-198.057
-197.089
-196.109
-195.116
-194.111
-193.092
-192.06
-191.014
-189.955
-188.881
-187.794
-186.692
-185.577
-184.449
-183.307
-182.152
-180.984
-179.804
-178.611
-177.407
-176.191
-174.963
-173.724
-172.474
-171.211
-169.937
-168.65
-167.35
-166.037
-164.71
-163.369
-162.014
-160.643
-159.256
-157.854
-156.436
-155.003
-153.554
-152.09
-150.612
-149.121
-147.617
-146.103
-144.579
-143.046
-141.506
-139.96
-138.41
-136.855
-135.298
-133.739
-132.177
-130.614
-129.049
-127.482
-125.912
-124.339
-122.761
-121.179
-119.59
-117.995
-116.392
-114.779
-113.158
-111.525
-109.882
-108.228
-106.563
-104.886
-103.199
-101.502
-99.7951
-98.0798
-96.3568
-94.6267
-92.891
-91.1499
-89.404
-87.6535
-85.8988
-84.1399
-82.3772
-80.6111
-78.8423
-77.0708
-75.3035
-73.529
-71.8099
-241.377
-241.367
-241.348
-241.319
-241.281
-241.233
-241.175
-241.107
-241.029
-240.941
-240.843
-240.733
-240.613
-240.482
-240.34
-240.186
-240.021
-239.844
-239.656
-239.456
-239.244
-239.021
-238.786
-238.54
-238.282
-238.013
-237.733
-237.442
-237.14
-236.827
-236.504
-236.17
-235.826
-235.472
-235.108
-234.735
-234.352
-233.959
-233.558
-233.147
-232.728
-232.3
-231.864
-231.42
-230.968
-230.508
-230.04
-229.565
-229.081
-228.589
-228.09
-227.585
-227.074
-226.555
-226.026
-225.481
-224.921
-224.352
-223.781
-223.208
-222.633
-222.052
-221.464
-220.868
-220.261
-219.644
-219.015
-218.374
-217.72
-217.052
-216.37
-215.674
-214.963
-214.239
-213.5
-212.747
-211.981
-211.201
-210.407
-209.601
-208.782
-207.951
-207.108
-206.253
-205.387
-204.51
-203.621
-202.722
-201.812
-200.89
-199.958
-199.014
-198.058
-197.091
-196.111
-195.119
-194.114
-193.096
-192.064
-191.019
-189.96
-188.887
-187.8
-186.699
-185.584
-184.455
-183.314
-182.159
-180.991
-179.811
-178.619
-177.414
-176.199
-174.972
-173.733
-172.483
-171.221
-169.947
-168.661
-167.363
-166.051
-164.725
-163.385
-162.031
-160.661
-159.276
-157.874
-156.457
-155.024
-153.576
-152.113
-150.635
-149.145
-147.641
-146.127
-144.602
-143.069
-141.529
-139.982
-138.431
-136.877
-135.319
-133.759
-132.197
-130.634
-129.069
-127.502
-125.932
-124.359
-122.781
-121.199
-119.611
-118.016
-116.413
-114.801
-113.18
-111.548
-109.905
-108.252
-106.586
-104.91
-103.223
-101.525
-99.8185
-98.1029
-96.3797
-94.6491
-92.913
-91.1715
-89.4252
-87.6744
-85.9191
-84.1596
-82.3963
-80.6294
-78.8596
-77.0866
-75.3168
-73.5384
-71.8036
-241.462
-241.452
-241.433
-241.405
-241.366
-241.318
-241.261
-241.193
-241.114
-241.026
-240.926
-240.816
-240.694
-240.561
-240.417
-240.262
-240.094
-239.915
-239.725
-239.523
-239.309
-239.084
-238.847
-238.599
-238.339
-238.068
-237.786
-237.493
-237.189
-236.874
-236.548
-236.212
-235.866
-235.51
-235.144
-234.768
-234.382
-233.987
-233.584
-233.171
-232.749
-232.319
-231.88
-231.434
-230.979
-230.516
-230.046
-229.569
-229.084
-228.594
-228.096
-227.591
-227.078
-226.558
-226.028
-225.488
-224.938
-224.379
-223.814
-223.243
-222.667
-222.085
-221.495
-220.897
-220.288
-219.669
-219.038
-218.395
-217.738
-217.069
-216.385
-215.687
-214.975
-214.249
-213.508
-212.754
-211.986
-211.204
-210.409
-209.602
-208.782
-207.949
-207.105
-206.25
-205.384
-204.506
-203.618
-202.718
-201.809
-200.888
-199.956
-199.013
-198.058
-197.092
-196.114
-195.123
-194.119
-193.102
-192.071
-191.027
-189.969
-188.897
-187.81
-186.71
-185.596
-184.468
-183.327
-182.172
-181.005
-179.825
-178.633
-177.43
-176.215
-174.989
-173.751
-172.503
-171.242
-169.97
-168.686
-167.39
-166.08
-164.756
-163.419
-162.066
-160.698
-159.315
-157.915
-156.5
-155.068
-153.621
-152.159
-150.682
-149.191
-147.687
-146.172
-144.647
-143.113
-141.572
-140.024
-138.472
-136.917
-135.358
-133.797
-132.235
-130.671
-129.105
-127.537
-125.967
-124.394
-122.817
-121.236
-119.648
-118.054
-116.451
-114.84
-113.219
-111.587
-109.945
-108.291
-106.626
-104.95
-103.262
-101.564
-99.8566
-98.1402
-96.416
-94.6848
-92.9477
-91.2054
-89.4583
-87.7068
-85.9511
-84.1912
-82.4273
-80.6595
-78.8884
-77.1131
-75.3408
-73.5562
-71.8072
-241.591
-241.581
-241.562
-241.533
-241.495
-241.447
-241.389
-241.32
-241.24
-241.15
-241.049
-240.936
-240.813
-240.677
-240.531
-240.372
-240.203
-240.021
-239.828
-239.623
-239.406
-239.178
-238.938
-238.686
-238.423
-238.149
-237.864
-237.568
-237.26
-236.942
-236.613
-236.274
-235.924
-235.565
-235.195
-234.815
-234.426
-234.027
-233.62
-233.203
-232.778
-232.345
-231.904
-231.455
-230.998
-230.534
-230.064
-229.587
-229.103
-228.612
-228.116
-227.612
-227.101
-226.582
-226.055
-225.519
-224.973
-224.42
-223.859
-223.29
-222.715
-222.132
-221.541
-220.941
-220.33
-219.708
-219.075
-218.429
-217.77
-217.097
-216.411
-215.71
-214.996
-214.267
-213.524
-212.767
-211.997
-211.213
-210.416
-209.606
-208.784
-207.951
-207.105
-206.249
-205.382
-204.504
-203.615
-202.716
-201.807
-200.887
-199.956
-199.014
-198.061
-197.096
-196.119
-195.13
-194.127
-193.112
-192.083
-191.04
-189.983
-188.912
-187.827
-186.727
-185.613
-184.486
-183.345
-182.191
-181.024
-179.844
-178.653
-177.45
-176.236
-175.011
-173.775
-172.528
-171.269
-169.999
-168.717
-167.423
-166.116
-164.795
-163.46
-162.11
-160.744
-159.363
-157.966
-156.552
-155.122
-153.675
-152.213
-150.736
-149.245
-147.741
-146.225
-144.699
-143.163
-141.621
-140.072
-138.518
-136.961
-135.401
-133.839
-132.275
-130.71
-129.144
-127.577
-126.007
-124.434
-122.857
-121.276
-119.689
-118.095
-116.493
-114.883
-113.262
-111.631
-109.989
-108.336
-106.671
-104.994
-103.306
-101.607
-99.8984
-98.1809
-96.4555
-94.7231
-92.9848
-91.2414
-89.4934
-87.7412
-85.9849
-84.2245
-82.46
-80.6914
-78.9191
-77.1418
-75.3663
-73.5761
-71.817
-241.764
-241.753
-241.734
-241.706
-241.667
-241.618
-241.558
-241.488
-241.406
-241.314
-241.21
-241.095
-240.969
-240.831
-240.681
-240.519
-240.346
-240.161
-239.964
-239.755
-239.535
-239.302
-239.059
-238.803
-238.536
-238.258
-237.968
-237.668
-237.356
-237.033
-236.7
-236.356
-236.002
-235.637
-235.263
-234.879
-234.485
-234.082
-233.671
-233.251
-232.822
-232.386
-231.943
-231.492
-231.034
-230.57
-230.099
-229.622
-229.139
-228.649
-228.153
-227.65
-227.141
-226.623
-226.098
-225.565
-225.023
-224.473
-223.914
-223.348
-222.774
-222.191
-221.599
-220.997
-220.385
-219.761
-219.125
-218.476
-217.814
-217.138
-216.449
-215.745
-215.027
-214.295
-213.549
-212.789
-212.016
-211.229
-210.429
-209.616
-208.792
-207.956
-207.109
-206.251
-205.382
-204.504
-203.615
-202.716
-201.807
-200.888
-199.958
-199.017
-198.066
-197.103
-196.127
-195.14
-194.139
-193.126
-192.098
-191.057
-190.001
-188.93
-187.846
-186.747
-185.633
-184.506
-183.365
-182.21
-181.043
-179.864
-178.673
-177.471
-176.258
-175.033
-173.798
-172.553
-171.296
-170.028
-168.749
-167.457
-166.152
-164.834
-163.502
-162.154
-160.791
-159.412
-158.017
-156.604
-155.175
-153.73
-152.268
-150.791
-149.299
-147.793
-146.276
-144.748
-143.21
-141.665
-140.114
-138.559
-137
-135.438
-133.875
-132.31
-130.745
-129.179
-127.611
-126.041
-124.469
-122.893
-121.312
-119.726
-118.134
-116.533
-114.923
-113.304
-111.673
-110.032
-108.378
-106.713
-105.036
-103.347
-101.647
-99.9377
-98.2189
-96.4921
-94.7584
-93.0188
-91.2743
-89.5252
-87.7722
-86.0154
-84.2546
-82.4897
-80.7203
-78.947
-77.1679
-75.3893
-73.5942
-71.8281
-241.98
-241.969
-241.95
-241.92
-241.88
-241.83
-241.768
-241.696
-241.612
-241.517
-241.411
-241.292
-241.163
-241.021
-240.867
-240.702
-240.524
-240.335
-240.134
-239.92
-239.695
-239.458
-239.209
-238.949
-238.677
-238.393
-238.098
-237.792
-237.475
-237.147
-236.808
-236.458
-236.098
-235.728
-235.349
-234.959
-234.561
-234.154
-233.738
-233.314
-232.882
-232.443
-231.998
-231.545
-231.086
-230.621
-230.15
-229.672
-229.189
-228.699
-228.204
-227.702
-227.193
-226.677
-226.154
-225.623
-225.083
-224.536
-223.98
-223.416
-222.843
-222.26
-221.668
-221.065
-220.451
-219.825
-219.187
-218.535
-217.871
-217.192
-216.499
-215.792
-215.071
-214.335
-213.585
-212.82
-212.043
-211.252
-210.448
-209.632
-208.805
-207.966
-207.116
-206.256
-205.386
-204.506
-203.617
-202.718
-201.809
-200.891
-199.962
-199.023
-198.073
-197.112
-196.139
-195.153
-194.154
-193.142
-192.116
-191.076
-190.021
-188.951
-187.867
-186.768
-185.654
-184.526
-183.385
-182.23
-181.063
-179.883
-178.692
-177.489
-176.276
-175.053
-173.819
-172.575
-171.32
-170.054
-168.777
-167.488
-166.186
-164.871
-163.541
-162.196
-160.836
-159.459
-158.065
-156.654
-155.226
-153.781
-152.319
-150.841
-149.348
-147.841
-146.321
-144.791
-143.251
-141.703
-140.15
-138.592
-137.031
-135.468
-133.903
-132.338
-130.772
-129.205
-127.638
-126.069
-124.497
-122.922
-121.343
-119.758
-118.167
-116.568
-114.959
-113.341
-111.711
-110.07
-108.417
-106.752
-105.074
-103.385
-101.684
-99.9729
-98.2526
-96.5243
-94.7891
-93.0481
-91.3023
-89.5523
-87.7985
-86.0411
-84.2799
-82.5146
-80.7447
-78.9704
-77.1898
-75.4082
-73.6085
-71.8378
-242.239
-242.228
-242.208
-242.177
-242.136
-242.084
-242.02
-241.945
-241.859
-241.761
-241.651
-241.529
-241.395
-241.249
-241.091
-240.921
-240.738
-240.544
-240.337
-240.119
-239.888
-239.645
-239.39
-239.124
-238.846
-238.556
-238.255
-237.942
-237.618
-237.284
-236.938
-236.582
-236.216
-235.839
-235.454
-235.058
-234.654
-234.242
-233.821
-233.393
-232.958
-232.515
-232.067
-231.612
-231.151
-230.684
-230.211
-229.733
-229.25
-228.76
-228.265
-227.764
-227.256
-226.742
-226.22
-225.691
-225.154
-224.609
-224.055
-223.492
-222.921
-222.339
-221.746
-221.143
-220.528
-219.901
-219.261
-218.607
-217.939
-217.257
-216.561
-215.85
-215.124
-214.384
-213.629
-212.86
-212.077
-211.282
-210.473
-209.653
-208.821
-207.979
-207.126
-206.264
-205.392
-204.511
-203.62
-202.721
-201.813
-200.895
-199.968
-199.03
-198.082
-197.123
-196.152
-195.168
-194.171
-193.161
-192.136
-191.097
-190.043
-188.974
-187.89
-186.79
-185.676
-184.547
-183.405
-182.249
-181.08
-179.9
-178.708
-177.505
-176.292
-175.069
-173.836
-172.593
-171.34
-170.076
-168.802
-167.515
-166.216
-164.904
-163.577
-162.235
-160.877
-159.503
-158.111
-156.701
-155.274
-153.829
-152.366
-150.887
-149.392
-147.883
-146.361
-144.828
-143.285
-141.735
-140.178
-138.618
-137.055
-135.49
-133.924
-132.358
-130.791
-129.225
-127.658
-126.089
-124.519
-122.946
-121.368
-119.785
-118.195
-116.598
-114.991
-113.374
-111.745
-110.105
-108.452
-106.787
-105.109
-103.418
-101.716
-100.004
-98.282
-96.5519
-94.815
-93.0725
-91.3254
-89.5744
-87.8198
-86.0619
-84.3004
-82.5347
-80.7644
-78.9892
-77.2071
-75.4229
-73.6187
-71.8451
-242.542
-242.531
-242.51
-242.478
-242.435
-242.381
-242.315
-242.237
-242.147
-242.045
-241.931
-241.805
-241.666
-241.515
-241.352
-241.176
-240.988
-240.788
-240.575
-240.35
-240.113
-239.863
-239.602
-239.328
-239.043
-238.746
-238.437
-238.117
-237.786
-237.444
-237.091
-236.727
-236.354
-235.97
-235.577
-235.175
-234.765
-234.346
-233.92
-233.487
-233.047
-232.6
-232.147
-231.689
-231.226
-230.757
-230.282
-229.803
-229.319
-228.829
-228.334
-227.834
-227.327
-226.814
-226.294
-225.767
-225.233
-224.69
-224.138
-223.578
-223.007
-222.427
-221.835
-221.231
-220.616
-219.987
-219.345
-218.689
-218.019
-217.333
-216.633
-215.917
-215.187
-214.441
-213.681
-212.906
-212.118
-211.316
-210.502
-209.677
-208.84
-207.994
-207.137
-206.272
-205.397
-204.515
-203.624
-202.724
-201.816
-200.9
-199.974
-199.038
-198.092
-197.135
-196.167
-195.185
-194.191
-193.182
-192.159
-191.121
-190.067
-188.998
-187.914
-186.813
-185.698
-184.568
-183.424
-182.266
-181.096
-179.914
-178.721
-177.518
-176.304
-175.081
-173.849
-172.607
-171.356
-170.095
-168.823
-167.539
-166.244
-164.934
-163.611
-162.272
-160.917
-159.544
-158.154
-156.746
-155.319
-153.873
-152.41
-150.93
-149.433
-147.921
-146.396
-144.859
-143.313
-141.76
-140.2
-138.637
-137.071
-135.504
-133.937
-132.37
-130.804
-129.237
-127.671
-126.104
-124.535
-122.963
-121.388
-119.807
-118.219
-116.623
-115.018
-113.403
-111.775
-110.136
-108.484
-106.818
-105.14
-103.448
-101.745
-100.031
-98.3075
-96.5756
-94.8368
-93.0927
-91.3442
-89.5921
-87.8368
-86.0783
-84.3164
-82.5505
-80.7797
-79.0038
-77.2203
-75.4336
-73.6254
-71.8497
-242.891
-242.879
-242.857
-242.824
-242.779
-242.723
-242.654
-242.572
-242.478
-242.372
-242.253
-242.122
-241.977
-241.82
-241.651
-241.469
-241.274
-241.067
-240.847
-240.614
-240.37
-240.113
-239.844
-239.562
-239.269
-238.964
-238.647
-238.318
-237.979
-237.628
-237.266
-236.894
-236.512
-236.12
-235.719
-235.31
-234.891
-234.466
-234.033
-233.593
-233.147
-232.695
-232.238
-231.775
-231.308
-230.837
-230.36
-229.88
-229.395
-228.905
-228.41
-227.91
-227.405
-226.894
-226.376
-225.851
-225.319
-224.779
-224.23
-223.671
-223.103
-222.523
-221.933
-221.33
-220.714
-220.084
-219.44
-218.782
-218.109
-217.419
-216.715
-215.994
-215.258
-214.506
-213.739
-212.958
-212.163
-211.355
-210.534
-209.703
-208.861
-208.009
-207.148
-206.279
-205.402
-204.518
-203.626
-202.726
-201.819
-200.904
-199.98
-199.046
-198.103
-197.148
-196.182
-195.204
-194.211
-193.205
-192.183
-191.146
-190.093
-189.024
-187.939
-186.837
-185.72
-184.588
-183.442
-182.282
-181.11
-179.926
-178.731
-177.527
-176.313
-175.09
-173.858
-172.618
-171.369
-170.11
-168.841
-167.56
-166.268
-164.962
-163.642
-162.306
-160.954
-159.584
-158.195
-156.788
-155.361
-153.916
-152.452
-150.969
-149.47
-147.955
-146.426
-144.886
-143.336
-141.779
-140.216
-138.65
-137.081
-135.513
-133.944
-132.377
-130.81
-129.244
-127.679
-126.113
-124.546
-122.976
-121.403
-119.824
-118.239
-116.645
-115.042
-113.428
-111.803
-110.164
-108.512
-106.847
-105.168
-103.476
-101.771
-100.055
-98.3297
-96.5957
-94.855
-93.1091
-91.3592
-89.6059
-87.8499
-86.091
-84.3288
-82.5626
-80.7914
-79.0147
-77.2299
-75.4411
-73.6291
-71.852
-243.288
-243.275
-243.252
-243.218
-243.171
-243.111
-243.039
-242.953
-242.855
-242.743
-242.619
-242.481
-242.33
-242.166
-241.989
-241.8
-241.597
-241.382
-241.154
-240.913
-240.66
-240.395
-240.117
-239.827
-239.524
-239.21
-238.884
-238.546
-238.196
-237.836
-237.465
-237.083
-236.691
-236.289
-235.879
-235.46
-235.033
-234.598
-234.157
-233.709
-233.256
-232.798
-232.335
-231.868
-231.396
-230.921
-230.443
-229.96
-229.474
-228.984
-228.49
-227.992
-227.488
-226.979
-226.464
-225.942
-225.413
-224.875
-224.329
-223.773
-223.207
-222.63
-222.04
-221.438
-220.822
-220.191
-219.546
-218.885
-218.208
-217.515
-216.805
-216.079
-215.336
-214.577
-213.803
-213.014
-212.211
-211.395
-210.567
-209.728
-208.88
-208.022
-207.157
-206.284
-205.404
-204.518
-203.625
-202.725
-201.819
-200.905
-199.983
-199.053
-198.112
-197.161
-196.198
-195.222
-194.233
-193.228
-192.209
-191.173
-190.12
-189.051
-187.964
-186.862
-185.743
-184.608
-183.459
-182.297
-181.121
-179.935
-178.739
-177.533
-176.318
-175.095
-173.864
-172.625
-171.377
-170.121
-168.855
-167.578
-166.289
-164.987
-163.67
-162.338
-160.989
-159.621
-158.235
-156.828
-155.402
-153.956
-152.491
-151.006
-149.504
-147.986
-146.453
-144.909
-143.355
-141.793
-140.226
-138.657
-137.086
-135.515
-133.945
-132.377
-130.811
-129.246
-127.682
-126.118
-124.553
-122.985
-121.415
-119.838
-118.256
-116.664
-115.063
-113.451
-111.827
-110.19
-108.539
-106.873
-105.194
-103.5
-101.794
-100.077
-98.3491
-96.6129
-94.8701
-93.1224
-91.3709
-89.6165
-87.8597
-86.1003
-84.3379
-82.5716
-80.8002
-79.0228
-77.2368
-75.4461
-73.6307
-71.8523
-243.736
-243.722
-243.698
-243.662
-243.613
-243.55
-243.473
-243.383
-243.278
-243.16
-243.029
-242.884
-242.725
-242.553
-242.368
-242.17
-241.959
-241.735
-241.497
-241.248
-240.985
-240.71
-240.422
-240.122
-239.81
-239.485
-239.148
-238.8
-238.44
-238.068
-237.686
-237.293
-236.889
-236.477
-236.055
-235.625
-235.187
-234.742
-234.291
-233.834
-233.373
-232.907
-232.437
-231.964
-231.488
-231.009
-230.527
-230.043
-229.556
-229.066
-228.573
-228.076
-227.575
-227.069
-226.557
-226.038
-225.513
-224.979
-224.436
-223.883
-223.32
-222.745
-222.157
-221.555
-220.939
-220.308
-219.661
-218.998
-218.317
-217.619
-216.904
-216.171
-215.421
-214.654
-213.871
-213.073
-212.261
-211.436
-210.599
-209.752
-208.896
-208.032
-207.161
-206.284
-205.401
-204.513
-203.619
-202.72
-201.815
-200.904
-199.985
-199.057
-198.12
-197.173
-196.214
-195.241
-194.255
-193.253
-192.235
-191.2
-190.148
-189.078
-187.991
-186.886
-185.765
-184.627
-183.475
-182.309
-181.13
-179.941
-178.742
-177.534
-176.319
-175.095
-173.865
-172.627
-171.382
-170.129
-168.866
-167.593
-166.308
-165.009
-163.697
-162.368
-161.022
-159.657
-158.273
-156.868
-155.442
-153.995
-152.528
-151.041
-149.536
-148.013
-146.476
-144.927
-143.369
-141.803
-140.232
-138.659
-137.085
-135.513
-133.942
-132.373
-130.807
-129.243
-127.681
-126.119
-124.556
-122.991
-121.423
-119.85
-118.27
-116.681
-115.083
-113.473
-111.85
-110.214
-108.563
-106.898
-105.218
-103.523
-101.816
-100.096
-98.366
-96.6275
-94.8825
-93.1328
-91.3798
-89.6243
-87.8668
-86.1071
-84.3445
-82.5782
-80.8065
-79.0286
-77.2415
-75.4492
-73.6307
-71.8513
-244.239
-244.225
-244.199
-244.16
-244.108
-244.041
-243.959
-243.863
-243.752
-243.626
-243.487
-243.333
-243.165
-242.984
-242.789
-242.581
-242.36
-242.126
-241.878
-241.618
-241.345
-241.059
-240.761
-240.45
-240.126
-239.79
-239.442
-239.081
-238.709
-238.325
-237.93
-237.524
-237.107
-236.681
-236.246
-235.803
-235.353
-234.895
-234.433
-233.965
-233.494
-233.019
-232.541
-232.061
-231.58
-231.097
-230.612
-230.126
-229.639
-229.149
-228.658
-228.163
-227.665
-227.162
-226.654
-226.14
-225.618
-225.089
-224.55
-224.001
-223.441
-222.868
-222.282
-221.682
-221.066
-220.435
-219.786
-219.12
-218.435
-217.732
-217.01
-216.27
-215.511
-214.735
-213.942
-213.133
-212.31
-211.474
-210.628
-209.771
-208.907
-208.036
-207.159
-206.277
-205.391
-204.501
-203.607
-202.709
-201.806
-200.897
-199.981
-199.058
-198.125
-197.182
-196.227
-195.259
-194.276
-193.277
-192.262
-191.228
-190.177
-189.106
-188.017
-186.911
-185.786
-184.645
-183.489
-182.318
-181.136
-179.943
-178.742
-177.532
-176.315
-175.092
-173.862
-172.626
-171.384
-170.133
-168.875
-167.605
-166.324
-165.03
-163.721
-162.397
-161.055
-159.693
-158.31
-156.906
-155.48
-154.033
-152.564
-151.074
-149.565
-148.038
-146.496
-144.942
-143.379
-141.808
-140.232
-138.655
-137.079
-135.505
-133.933
-132.365
-130.8
-129.238
-127.677
-126.117
-124.557
-122.995
-121.43
-119.86
-118.282
-116.697
-115.101
-113.493
-111.872
-110.236
-108.586
-106.921
-105.24
-103.544
-101.835
-100.113
-98.3808
-96.6397
-94.8925
-93.1408
-91.3862
-89.6297
-87.8715
-86.1116
-84.3491
-82.5828
-80.8111
-79.0328
-77.2448
-75.4511
-73.6299
-71.8493
-244.803
-244.787
-244.759
-244.718
-244.662
-244.589
-244.501
-244.397
-244.278
-244.143
-243.994
-243.83
-243.652
-243.46
-243.254
-243.034
-242.802
-242.556
-242.297
-242.025
-241.741
-241.443
-241.133
-240.81
-240.474
-240.126
-239.765
-239.391
-239.005
-238.607
-238.198
-237.776
-237.345
-236.903
-236.453
-235.994
-235.529
-235.057
-234.58
-234.1
-233.617
-233.131
-232.645
-232.157
-231.67
-231.182
-230.695
-230.207
-229.719
-229.231
-228.742
-228.25
-227.755
-227.257
-226.754
-226.245
-225.729
-225.205
-224.671
-224.126
-223.57
-223
-222.417
-221.818
-221.202
-220.57
-219.919
-219.249
-218.56
-217.851
-217.121
-216.372
-215.604
-214.816
-214.011
-213.19
-212.355
-211.508
-210.65
-209.783
-208.909
-208.029
-207.147
-206.261
-205.372
-204.48
-203.586
-202.689
-201.789
-200.883
-199.972
-199.054
-198.127
-197.189
-196.239
-195.276
-194.297
-193.301
-192.288
-191.256
-190.205
-189.134
-188.043
-186.933
-185.806
-184.661
-183.499
-182.323
-181.136
-179.94
-178.735
-177.523
-176.305
-175.082
-173.853
-172.619
-171.38
-170.134
-168.879
-167.615
-166.338
-165.048
-163.745
-162.425
-161.087
-159.728
-158.347
-156.944
-155.519
-154.07
-152.599
-151.106
-149.593
-148.061
-146.513
-144.953
-143.384
-141.809
-140.228
-138.647
-137.068
-135.492
-133.92
-132.352
-130.788
-129.228
-127.67
-126.114
-124.556
-122.998
-121.437
-119.869
-118.295
-116.711
-115.118
-113.512
-111.892
-110.258
-108.609
-106.943
-105.261
-103.564
-101.853
-100.129
-98.3937
-96.65
-94.9003
-93.1466
-91.3905
-89.633
-87.8744
-86.1144
-84.3521
-82.5861
-80.8145
-79.036
-77.2473
-75.4525
-73.6289
-71.8469
-245.434
-245.416
-245.385
-245.34
-245.278
-245.199
-245.103
-244.989
-244.859
-244.714
-244.553
-244.377
-244.186
-243.982
-243.763
-243.531
-243.285
-243.026
-242.755
-242.47
-242.173
-241.863
-241.54
-241.205
-240.856
-240.494
-240.119
-239.731
-239.33
-238.916
-238.489
-238.051
-237.602
-237.142
-236.673
-236.197
-235.713
-235.224
-234.732
-234.236
-233.739
-233.241
-232.744
-232.248
-231.754
-231.262
-230.771
-230.283
-229.796
-229.309
-228.823
-228.335
-227.846
-227.353
-226.856
-226.354
-225.844
-225.325
-224.797
-224.258
-223.705
-223.139
-222.558
-221.96
-221.344
-220.71
-220.057
-219.383
-218.688
-217.972
-217.234
-216.475
-215.695
-214.894
-214.075
-213.24
-212.391
-211.53
-210.66
-209.781
-208.896
-208.008
-207.119
-206.229
-205.338
-204.446
-203.553
-202.658
-201.761
-200.861
-199.955
-199.043
-198.122
-197.191
-196.247
-195.289
-194.315
-193.323
-192.313
-191.282
-190.231
-189.159
-188.066
-186.953
-185.821
-184.671
-183.506
-182.326
-181.135
-179.934
-178.724
-177.508
-176.287
-175.062
-173.833
-172.6
-171.363
-170.121
-168.871
-167.613
-166.345
-165.063
-163.766
-162.452
-161.119
-159.763
-158.384
-156.982
-155.557
-154.107
-152.634
-151.138
-149.62
-148.081
-146.527
-144.96
-143.385
-141.804
-140.22
-138.636
-137.053
-135.474
-133.899
-132.331
-130.767
-129.209
-127.654
-126.102
-124.551
-122.998
-121.441
-119.878
-118.307
-116.727
-115.136
-113.532
-111.913
-110.281
-108.631
-106.965
-105.282
-103.584
-101.87
-100.143
-98.4049
-96.6582
-94.906
-93.1503
-91.3928
-89.6345
-87.8757
-86.1159
-84.3541
-82.5887
-80.8173
-79.0387
-77.2494
-75.4537
-73.6282
-71.8447
-246.138
-246.118
-246.083
-246.033
-245.964
-245.876
-245.769
-245.643
-245.501
-245.342
-245.167
-244.977
-244.771
-244.552
-244.318
-244.071
-243.811
-243.538
-243.252
-242.954
-242.643
-242.319
-241.983
-241.634
-241.271
-240.895
-240.505
-240.102
-239.684
-239.252
-238.807
-238.349
-237.879
-237.398
-236.907
-236.409
-235.904
-235.395
-234.883
-234.369
-233.856
-233.344
-232.836
-232.33
-231.829
-231.332
-230.839
-230.35
-229.864
-229.381
-228.899
-228.417
-227.934
-227.448
-226.959
-226.463
-225.96
-225.448
-224.926
-224.392
-223.844
-223.281
-222.702
-222.105
-221.49
-220.854
-220.197
-219.519
-218.818
-218.094
-217.347
-216.576
-215.782
-214.966
-214.131
-213.278
-212.411
-211.535
-210.652
-209.763
-208.87
-207.975
-207.08
-206.184
-205.289
-204.395
-203.502
-202.609
-201.716
-200.82
-199.921
-199.015
-198.102
-197.179
-196.243
-195.292
-194.325
-193.339
-192.332
-191.305
-190.255
-189.183
-188.089
-186.973
-185.837
-184.683
-183.513
-182.329
-181.132
-179.924
-178.708
-177.486
-176.26
-175.031
-173.8
-172.567
-171.331
-170.091
-168.846
-167.594
-166.334
-165.061
-163.772
-162.465
-161.138
-159.789
-158.416
-157.018
-155.594
-154.143
-152.667
-151.167
-149.645
-148.102
-146.543
-144.971
-143.389
-141.801
-140.212
-138.623
-137.035
-135.451
-133.873
-132.302
-130.738
-129.18
-127.628
-126.079
-124.533
-122.986
-121.436
-119.88
-118.316
-116.742
-115.154
-113.552
-111.936
-110.304
-108.654
-106.987
-105.303
-103.602
-101.886
-100.156
-98.4146
-96.6644
-94.9094
-93.1517
-91.393
-89.6341
-87.8754
-86.1163
-84.3554
-82.591
-80.8202
-79.0416
-77.2519
-75.4555
-73.6282
-71.8429
-246.951
-246.927
-246.887
-246.829
-246.75
-246.649
-246.528
-246.386
-246.227
-246.051
-245.858
-245.65
-245.427
-245.189
-244.938
-244.673
-244.396
-244.106
-243.804
-243.491
-243.165
-242.827
-242.477
-242.113
-241.736
-241.345
-240.939
-240.517
-240.081
-239.628