/*--------------------------------*- C++ -*----------------------------------*\
| =========                 |                                                 |
| \\      /  F ield         | OpenFOAM: The Open Source CFD Toolbox           |
|  \\    /   O peration     | Version:  2312                                  |
|   \\  /    A nd           | Website:  www.openfoam.com                      |
|    \\/     M anipulation  |                                                 |
\*---------------------------------------------------------------------------*/
FoamFile
{
    version     2.0;
    format      ascii;
    arch        "LSB;label=32;scalar=64";
    class       surfaceScalarField;
    location    "0.2";
    object      phi;
}
// * * * * * * * * * * * * * * * * * * * * * * * * * * * * * * * * * * * * * //

dimensions      [0 3 -1 0 0 0 0];

oriented        oriented;

internalField   nonuniform List<scalar> 
24170
(
3.04566e-06
1.74042e-07
2.57624e-06
4.69422e-07
1.79877e-06
7.77469e-07
1.26829e-06
5.30473e-07
1.00944e-06
2.58852e-07
9.06887e-07
1.02554e-07
8.72725e-07
3.4162e-08
8.6592e-07
6.80579e-09
8.66336e-07
-4.16116e-10
8.66494e-07
-1.58567e-10
8.65318e-07
1.17633e-09
8.64123e-07
1.19504e-09
8.632e-07
9.22555e-10
8.64383e-07
-1.18247e-09
8.64673e-07
-2.90706e-10
8.71433e-07
-6.75943e-09
8.71388e-07
4.45364e-11
-3.44649e-08
9.05853e-07
3.49768e-06
1.78941e-07
3.4551e-06
5.12001e-07
3.31563e-06
9.16941e-07
3.03552e-06
8.10577e-07
2.77588e-06
5.18499e-07
2.58687e-06
2.91563e-07
2.4551e-06
1.6593e-07
2.36087e-06
1.01038e-07
2.29144e-06
6.9007e-08
2.23939e-06
5.18986e-08
2.19988e-06
4.06826e-08
2.16981e-06
3.12642e-08
2.14663e-06
2.41019e-08
2.12946e-06
1.5993e-08
2.11685e-06
1.23195e-08
2.10784e-06
2.24348e-09
2.10944e-06
-1.55629e-09
-2.71769e-08
2.10216e-06
3.64196e-06
1.00526e-07
3.70162e-06
4.52341e-07
3.79412e-06
8.24447e-07
3.79529e-06
8.09404e-07
3.73269e-06
5.81103e-07
3.65393e-06
3.70314e-07
3.57191e-06
2.47956e-07
3.48744e-06
1.85511e-07
3.40413e-06
1.52317e-07
3.32647e-06
1.29559e-07
3.25766e-06
1.09491e-07
3.19924e-06
8.9677e-08
3.15099e-06
7.23584e-08
3.11135e-06
5.56333e-08
3.07975e-06
4.39204e-08
3.05331e-06
2.86806e-08
3.03445e-06
1.73021e-08
-5.45792e-09
3.01273e-06
3.90547e-06
7.68288e-08
3.96023e-06
3.97574e-07
4.05776e-06
7.26918e-07
4.12654e-06
7.40626e-07
4.15223e-06
5.55417e-07
4.15576e-06
3.66776e-07
4.14857e-06
2.55153e-07
4.13021e-06
2.03867e-07
4.10264e-06
1.79886e-07
4.06963e-06
1.62569e-07
4.03441e-06
1.44714e-07
3.9994e-06
1.24689e-07
3.96614e-06
1.05615e-07
3.93506e-06
8.67177e-08
3.90708e-06
7.18939e-08
3.88078e-06
5.49832e-08
3.85776e-06
4.03181e-08
1.99635e-08
3.83234e-06
4.21528e-06
4.94637e-08
4.2601e-06
3.52757e-07
4.34762e-06
6.39394e-07
4.41995e-06
6.68292e-07
4.45813e-06
5.17237e-07
4.47135e-06
3.53556e-07
4.47511e-06
2.51397e-07
4.47565e-06
2.0332e-07
4.47485e-06
1.80694e-07
4.47318e-06
1.64233e-07
4.47042e-06
1.47472e-07
4.46583e-06
1.29284e-07
4.45936e-06
1.12087e-07
4.451e-06
9.50706e-08
4.44251e-06
8.03836e-08
4.43325e-06
6.42444e-08
4.42495e-06
4.86165e-08
3.06899e-08
4.41423e-06
4.51619e-06
-2.97443e-08
4.58368e-06
2.85267e-07
4.66447e-06
5.58597e-07
4.73424e-06
5.98521e-07
4.77152e-06
4.79964e-07
4.78321e-06
3.41868e-07
4.78513e-06
2.49477e-07
4.78675e-06
2.01691e-07
4.79039e-06
1.77056e-07
4.79513e-06
1.59496e-07
4.7995e-06
1.43106e-07
4.80215e-06
1.26627e-07
4.80302e-06
1.11219e-07
4.80206e-06
9.60325e-08
4.80077e-06
8.16722e-08
4.79885e-06
6.61639e-08
4.79725e-06
5.02204e-08
3.35484e-08
4.79439e-06
4.89139e-06
-6.17054e-09
4.92521e-06
2.51452e-07
4.99411e-06
4.89695e-07
5.06202e-06
5.30608e-07
5.10061e-06
4.41376e-07
5.11404e-06
3.28435e-07
5.11761e-06
2.45911e-07
5.1208e-06
1.98497e-07
5.12582e-06
1.72039e-07
5.13138e-06
1.53938e-07
5.13593e-06
1.38555e-07
5.1386e-06
1.23956e-07
5.13973e-06
1.1009e-07
5.13974e-06
9.6025e-08
5.13973e-06
8.16808e-08
5.13968e-06
6.62093e-08
5.13982e-06
5.0081e-08
3.39856e-08
5.13938e-06
5.28319e-06
-3.26918e-08
5.28209e-06
2.52557e-07
5.33586e-06
4.35924e-07
5.40046e-06
4.6601e-07
5.44309e-06
3.98743e-07
5.46263e-06
3.08896e-07
5.4714e-06
2.37145e-07
5.47817e-06
1.91722e-07
5.48507e-06
1.65141e-07
5.49103e-06
1.47973e-07
5.49498e-06
1.34604e-07
5.49673e-06
1.22207e-07
5.49709e-06
1.09734e-07
5.49688e-06
9.62354e-08
5.49699e-06
8.15678e-08
5.49751e-06
6.56938e-08
5.49831e-06
4.92822e-08
3.3443e-08
5.49885e-06
5.58755e-06
-9.91414e-09
5.61303e-06
2.27071e-07
5.67736e-06
3.71596e-07
5.74606e-06
3.97315e-07
5.79597e-06
3.48828e-07
5.82555e-06
2.79321e-07
5.84281e-06
2.19881e-07
5.85529e-06
1.7924e-07
5.86543e-06
1.55007e-07
5.87272e-06
1.4068e-07
5.87678e-06
1.30545e-07
5.87814e-06
1.2084e-07
5.8781e-06
1.09782e-07
5.87777e-06
9.65634e-08
5.87798e-06
8.1359e-08
5.87882e-06
6.48466e-08
5.88006e-06
4.80508e-08
3.23297e-08
5.88117e-06
5.96857e-06
-1.21302e-08
5.98378e-06
2.11865e-07
6.04317e-06
3.12202e-07
6.1111e-06
3.29387e-07
6.16513e-06
2.948e-07
6.20292e-06
2.41531e-07
6.22946e-06
1.93338e-07
6.24921e-06
1.59489e-07
6.26418e-06
1.40039e-07
6.27436e-06
1.30496e-07
6.28001e-06
1.24898e-07
6.28227e-06
1.1858e-07
6.28281e-06
1.09246e-07
6.283e-06
9.63672e-08
6.2837e-06
8.06642e-08
6.28503e-06
6.35127e-08
6.28674e-06
4.63471e-08
3.07309e-08
6.28833e-06
6.35825e-06
3.20459e-08
6.40267e-06
1.67442e-07
6.45753e-06
2.57343e-07
6.51556e-06
2.71364e-07
6.56368e-06
2.46677e-07
6.60184e-06
2.03372e-07
6.63383e-06
1.61349e-07
6.66035e-06
1.32964e-07
6.68094e-06
1.1945e-07
6.69537e-06
1.16066e-07
6.70422e-06
1.16053e-07
6.70892e-06
1.13875e-07
6.71134e-06
1.06832e-07
6.713e-06
9.47074e-08
6.71482e-06
7.8843e-08
6.71703e-06
6.12983e-08
6.71944e-06
4.39372e-08
2.85412e-08
6.72163e-06
5.73358e-06
-1.37604e-07
5.78768e-06
1.13338e-07
5.81693e-06
2.28094e-07
5.8503e-06
2.37999e-07
5.88231e-06
2.14669e-07
5.91149e-06
1.74188e-07
5.93883e-06
1.34009e-07
5.96354e-06
1.08258e-07
5.98391e-06
9.90742e-08
5.99914e-06
1.0084e-07
6.00948e-06
1.05711e-07
6.01602e-06
1.07334e-07
6.02023e-06
1.02621e-07
6.0234e-06
9.15344e-08
6.02635e-06
7.58963e-08
6.02933e-06
5.83191e-08
6.03225e-06
4.10187e-08
2.60016e-08
6.03479e-06
7.04413e-06
-1.16143e-07
7.0619e-06
9.55635e-08
7.09205e-06
1.97949e-07
7.11706e-06
2.12981e-07
7.14581e-06
1.85919e-07
7.17629e-06
1.43709e-07
7.20632e-06
1.03978e-07
7.23437e-06
8.02071e-08
7.25869e-06
7.47542e-08
7.27811e-06
8.14273e-08
7.29249e-06
9.13287e-08
7.3027e-06
9.7127e-08
7.31013e-06
9.51881e-08
7.31612e-06
8.55418e-08
7.32154e-06
7.04748e-08
7.32669e-06
5.31726e-08
7.33147e-06
3.62421e-08
2.19445e-08
7.33552e-06
8.57519e-06
-1.8957e-07
8.63394e-06
3.68128e-08
8.65253e-06
1.79358e-07
8.67122e-06
1.94292e-07
8.69667e-06
1.60476e-07
8.72509e-06
1.15282e-07
8.75367e-06
7.53977e-08
8.7815e-06
5.2379e-08
8.80719e-06
4.90629e-08
8.82915e-06
5.94657e-08
8.84673e-06
7.3754e-08
8.86048e-06
8.33777e-08
8.87164e-06
8.40225e-08
8.88143e-06
7.57551e-08
8.89055e-06
6.13528e-08
8.89914e-06
4.45815e-08
8.90695e-06
2.84332e-08
1.53846e-08
8.91351e-06
1.04315e-05
-3.75397e-08
1.04538e-05
1.4568e-08
1.05237e-05
1.09434e-07
1.05759e-05
1.4204e-07
1.06073e-05
1.2908e-07
1.06285e-05
9.41234e-08
1.06497e-05
5.41961e-08
1.06742e-05
2.78841e-08
1.06997e-05
2.35897e-08
1.07228e-05
3.63117e-08
1.07423e-05
5.42571e-08
1.07587e-05
6.6956e-08
1.07734e-05
6.94009e-08
1.07872e-05
6.19336e-08
1.08005e-05
4.80016e-08
1.08132e-05
3.19455e-08
1.08246e-05
1.7047e-08
5.78547e-09
1.08342e-05
1.28997e-05
-1.03951e-07
1.29417e-05
-2.7393e-08
1.29975e-05
5.36025e-08
1.30286e-05
1.10986e-07
1.30378e-05
1.19861e-07
1.30415e-05
9.03693e-08
1.30493e-05
4.64566e-08
1.3061e-05
1.61012e-08
1.30733e-05
1.13149e-08
1.30841e-05
2.5565e-08
1.3094e-05
4.4357e-08
1.31045e-05
5.64605e-08
1.31165e-05
5.73863e-08
1.313e-05
4.83656e-08
1.31445e-05
3.35512e-08
1.31589e-05
1.75816e-08
1.31723e-05
3.65608e-09
-5.92723e-09
1.3184e-05
1.53265e-05
-1.95683e-07
1.5392e-05
-9.28971e-08
1.54933e-05
-4.77124e-08
1.56198e-05
-1.54594e-08
1.57219e-05
1.77185e-08
1.57856e-05
2.66398e-08
1.58183e-05
1.37728e-08
1.58336e-05
8.17135e-10
1.58437e-05
1.19942e-09
1.58558e-05
1.3514e-08
1.58722e-05
2.79521e-08
1.58925e-05
3.61373e-08
1.59154e-05
3.45131e-08
1.59396e-05
2.41514e-08
1.59641e-05
9.09679e-09
1.59881e-05
-6.46976e-09
1.60112e-05
-1.94535e-08
-2.75631e-08
1.60328e-05
1.85667e-05
1.10312e-07
1.85491e-05
-7.53206e-08
1.86651e-05
-1.6373e-07
1.88075e-05
-1.57801e-07
1.89429e-05
-1.17695e-07
1.90475e-05
-7.80054e-08
1.91135e-05
-5.21867e-08
1.9152e-05
-3.76463e-08
1.91784e-05
-2.52757e-08
1.92042e-05
-1.2262e-08
1.92334e-05
-1.20992e-09
1.92654e-05
4.16158e-09
1.92984e-05
1.49476e-09
1.93309e-05
-8.40447e-09
1.93626e-05
-2.25714e-08
1.93934e-05
-3.72892e-08
1.94239e-05
-4.98933e-08
-5.79143e-08
1.94542e-05
2.30092e-05
-5.64638e-08
2.30544e-05
-1.20532e-07
2.30131e-05
-1.22416e-07
2.29668e-05
-1.11461e-07
2.29855e-05
-1.36448e-07
2.30648e-05
-1.57257e-07
2.31623e-05
-1.49706e-07
2.32454e-05
-1.20736e-07
2.33068e-05
-8.66603e-08
2.33535e-05
-5.89571e-08
2.33934e-05
-4.11216e-08
2.343e-05
-3.2484e-08
2.34629e-05
-3.13293e-08
2.34903e-05
-3.5893e-08
2.35123e-05
-4.45259e-08
2.35303e-05
-5.53364e-08
2.35472e-05
-6.67638e-08
-7.70446e-08
2.35663e-05
1.66434e-05
5.82314e-08
1.66345e-05
-1.1165e-07
1.66431e-05
-1.31036e-07
1.66866e-05
-1.54928e-07
1.67605e-05
-2.10363e-07
1.68528e-05
-2.49598e-07
1.6948e-05
-2.44899e-07
1.70353e-05
-2.08034e-07
1.71115e-05
-1.62865e-07
1.71773e-05
-1.24709e-07
1.72337e-05
-9.75932e-08
1.72809e-05
-7.96883e-08
1.7318e-05
-6.8387e-08
1.73443e-05
-6.2167e-08
1.73602e-05
-6.04653e-08
1.73676e-05
-6.27105e-08
1.73688e-05
-6.80227e-08
-7.51053e-08
1.73669e-05
1.47522e-05
-8.90839e-08
1.47384e-05
-9.78812e-08
1.47003e-05
-9.28766e-08
1.46873e-05
-1.41945e-07
1.4698e-05
-2.21047e-07
1.47258e-05
-2.77387e-07
1.47708e-05
-2.89887e-07
1.48301e-05
-2.67347e-07
1.48966e-05
-2.29363e-07
1.49629e-05
-1.91055e-07
1.50241e-05
-1.58751e-07
1.50773e-05
-1.32923e-07
1.51214e-05
-1.12488e-07
1.51561e-05
-9.68764e-08
1.51817e-05
-8.60671e-08
1.5199e-05
-7.9972e-08
1.5209e-05
-7.8047e-08
-7.96103e-08
1.52135e-05
1.27234e-05
-2.79474e-10
1.27132e-05
-8.75998e-08
1.27558e-05
-1.35547e-07
1.27996e-05
-1.85742e-07
1.28339e-05
-2.55288e-07
1.28645e-05
-3.07996e-07
1.29009e-05
-3.26327e-07
1.29473e-05
-3.13706e-07
1.30012e-05
-2.83329e-07
1.30581e-05
-2.47924e-07
1.31133e-05
-2.13986e-07
1.31635e-05
-1.83051e-07
1.32066e-05
-1.55584e-07
1.3242e-05
-1.32272e-07
1.32697e-05
-1.13772e-07
1.32901e-05
-1.00454e-07
1.33042e-05
-9.20735e-08
-8.8193e-08
1.33128e-05
1.10186e-05
-1.5255e-07
1.109e-05
-1.58967e-07
1.11429e-05
-1.88434e-07
1.12111e-05
-2.53934e-07
1.12626e-05
-3.0677e-07
1.1297e-05
-3.42383e-07
1.13229e-05
-3.52281e-07
1.13503e-05
-3.41142e-07
1.1385e-05
-3.17957e-07
1.14259e-05
-2.88816e-07
1.14682e-05
-2.56321e-07
1.15073e-05
-2.22144e-07
1.15409e-05
-1.89214e-07
1.15687e-05
-1.60065e-07
1.15911e-05
-1.36194e-07
1.16089e-05
-1.18224e-07
1.16227e-05
-1.05895e-07
-9.87546e-08
1.16333e-05
9.65019e-06
-2.01041e-07
9.67957e-06
-1.88345e-07
9.73198e-06
-2.40847e-07
9.80037e-06
-3.2232e-07
9.87234e-06
-3.78747e-07
9.93294e-06
-4.02983e-07
9.9751e-06
-3.94437e-07
1.00027e-05
-3.687e-07
1.00238e-05
-3.39062e-07
1.00433e-05
-3.08358e-07
1.00622e-05
-2.7526e-07
1.00799e-05
-2.39832e-07
1.0096e-05
-2.05245e-07
1.01105e-05
-1.74559e-07
1.01238e-05
-1.49513e-07
1.01362e-05
-1.30631e-07
1.01477e-05
-1.174e-07
-1.09153e-07
1.01581e-05
8.29203e-06
-1.85995e-07
8.32961e-06
-2.25917e-07
8.39288e-06
-3.04127e-07
8.47592e-06
-4.0536e-07
8.58383e-06
-4.8665e-07
8.68959e-06
-5.08747e-07
8.76555e-06
-4.70393e-07
8.8089e-06
-4.12055e-07
8.82899e-06
-3.59152e-07
8.83619e-06
-3.1555e-07
8.83773e-06
-2.76802e-07
8.83767e-06
-2.39773e-07
8.83824e-06
-2.05816e-07
8.8407e-06
-1.77015e-07
8.8455e-06
-1.54314e-07
8.8525e-06
-1.37636e-07
8.86102e-06
-1.25922e-07
-1.18145e-07
8.87002e-06
7.46739e-06
-1.26305e-07
7.39164e-06
-1.50166e-07
7.38534e-06
-2.9783e-07
7.43172e-06
-4.51737e-07
7.52642e-06
-5.81347e-07
7.632e-06
-6.14333e-07
7.70997e-06
-5.48357e-07
7.75331e-06
-4.55401e-07
7.77113e-06
-3.76968e-07
7.77225e-06
-3.1667e-07
7.76355e-06
-2.68103e-07
7.75108e-06
-2.27302e-07
7.73948e-06
-1.94214e-07
7.73155e-06
-1.69083e-07
7.72813e-06
-1.50902e-07
7.72882e-06
-1.38321e-07
7.73222e-06
-1.29323e-07
-1.22703e-07
7.73678e-06
6.36427e-06
-1.3001e-07
6.41238e-06
-1.98279e-07
6.44363e-06
-3.29084e-07
6.49802e-06
-5.0612e-07
6.60376e-06
-6.87092e-07
6.70712e-06
-7.17693e-07
6.7746e-06
-6.15838e-07
6.80568e-06
-4.86472e-07
6.81081e-06
-3.82098e-07
6.79662e-06
-3.02488e-07
6.76924e-06
-2.40718e-07
6.73672e-06
-1.94779e-07
6.70529e-06
-1.6279e-07
6.67787e-06
-1.41665e-07
6.65477e-06
-1.27799e-07
6.63474e-06
-1.18294e-07
6.61584e-06
-1.10418e-07
-1.03345e-07
6.59648e-06
5.58489e-06
-1.12575e-07
5.5834e-06
-1.96786e-07
5.60266e-06
-3.4834e-07
5.66243e-06
-5.65897e-07
5.78029e-06
-8.04952e-07
5.84092e-06
-7.78323e-07
5.83062e-06
-6.05537e-07
5.77429e-06
-4.30137e-07
5.6929e-06
-3.00716e-07
5.59813e-06
-2.07713e-07
5.50114e-06
-1.4373e-07
5.41034e-06
-1.03981e-07
5.32869e-06
-8.11378e-08
5.25498e-06
-6.79555e-08
5.18708e-06
-5.9902e-08
5.12298e-06
-5.41867e-08
5.06157e-06
-4.90151e-08
-4.39961e-08
5.00223e-06
4.84526e-06
-8.46865e-08
4.86323e-06
-2.14749e-07
4.83455e-06
-3.19663e-07
4.81627e-06
-5.47621e-07
4.72463e-06
-7.13311e-07
4.49522e-06
-5.4891e-07
4.22952e-06
-3.39836e-07
3.98716e-06
-1.8778e-07
3.78236e-06
-9.59165e-08
3.61587e-06
-4.12262e-08
3.48541e-06
-1.32666e-08
3.38436e-06
-2.92778e-09
3.30412e-06
-8.97658e-10
3.23801e-06
-1.85269e-09
3.18169e-06
-3.57653e-09
3.13241e-06
-4.91113e-09
3.08915e-06
-5.7516e-09
-5.83336e-09
3.05099e-06
4.11826e-06
3.90351e-06
3.58385e-06
3.03623e-06
2.32292e-06
1.77401e-06
1.43417e-06
1.24639e-06
1.15047e-06
1.10925e-06
1.09598e-06
1.09305e-06
1.09216e-06
1.0903e-06
1.08673e-06
1.08182e-06
1.07606e-06
1.07023e-06
-3.15706e-09
3.15706e-09
-4.64454e-09
1.48749e-09
1.40006e-10
-4.78455e-09
1.27581e-08
-1.26181e-08
3.17835e-08
-1.90254e-08
5.47502e-08
-2.29668e-08
7.94338e-08
-2.46836e-08
1.04194e-07
-2.47603e-08
1.27951e-07
-2.37571e-08
1.50043e-07
-2.20913e-08
1.70089e-07
-2.00462e-08
1.87899e-07
-1.78106e-08
2.03415e-07
-1.55154e-08
2.16668e-07
-1.32531e-08
2.27756e-07
-1.10881e-08
2.36824e-07
-9.06823e-09
2.44048e-07
-7.2242e-09
2.49627e-07
-5.57856e-09
2.53774e-07
-4.14722e-09
2.56716e-07
-2.94146e-09
2.58683e-07
-1.96783e-09
2.5991e-07
-1.2263e-09
2.60625e-07
-7.14844e-10
2.61045e-07
-4.1994e-10
2.6139e-07
-3.45132e-10
2.61858e-07
-4.67933e-10
2.62614e-07
-7.56546e-10
2.6379e-07
-1.17582e-09
2.65465e-07
-1.67535e-09
2.67679e-07
-2.21404e-09
2.70435e-07
-2.75555e-09
2.73702e-07
-3.26721e-09
2.77422e-07
-3.71957e-09
2.81501e-07
-4.0794e-09
2.85831e-07
-4.32959e-09
2.90317e-07
-4.48641e-09
2.94851e-07
-4.53385e-09
2.99333e-07
-4.48156e-09
3.03677e-07
-4.34499e-09
3.07815e-07
-4.13781e-09
3.11683e-07
-3.8682e-09
3.15225e-07
-3.54176e-09
3.1839e-07
-3.16501e-09
3.21147e-07
-2.75711e-09
3.23482e-07
-2.33493e-09
3.25343e-07
-1.86041e-09
3.26526e-07
-1.18344e-09
3.26463e-07
6.35158e-11
3.24854e-07
1.60908e-09
3.21489e-07
3.36414e-09
3.15312e-07
6.1776e-09
3.04109e-07
1.12032e-08
2.84756e-07
1.93529e-08
2.53417e-07
3.13385e-08
2.06064e-07
4.73533e-08
1.41068e-07
6.49955e-08
5.97328e-08
8.13356e-08
-3.01041e-08
8.98369e-08
-1.17885e-07
8.77807e-08
-2.00995e-07
8.31099e-08
-2.79611e-07
7.86164e-08
-3.53808e-07
7.41967e-08
-4.23718e-07
6.99105e-08
-4.89522e-07
6.58038e-08
-5.5144e-07
6.19183e-08
-6.09686e-07
5.82453e-08
-6.64453e-07
5.47673e-08
-7.15944e-07
5.14909e-08
-7.64353e-07
4.84091e-08
-8.09863e-07
4.55105e-08
-8.52647e-07
4.27838e-08
-8.92865e-07
4.02174e-08
-9.30665e-07
3.78007e-08
-9.66194e-07
3.55289e-08
-9.99591e-07
3.33962e-08
-1.03099e-06
3.13997e-08
-1.06053e-06
2.95417e-08
-1.08835e-06
2.78197e-08
-1.11458e-06
2.62305e-08
-1.13935e-06
2.47696e-08
-1.16278e-06
2.34315e-08
-1.18499e-06
2.22095e-08
-1.20609e-06
2.10955e-08
-1.22617e-06
2.00803e-08
-1.24532e-06
1.91535e-08
-1.26363e-06
1.83037e-08
-1.28114e-06
1.75184e-08
-1.29793e-06
1.6785e-08
-1.31402e-06
1.60905e-08
-1.32944e-06
1.54215e-08
-1.34421e-06
1.47663e-08
-1.35832e-06
1.41139e-08
-1.37178e-06
1.34553e-08
-1.38456e-06
1.27833e-08
-1.39665e-06
1.20925e-08
-1.40803e-06
1.13795e-08
-1.41867e-06
1.06428e-08
-1.42856e-06
9.88264e-09
-1.43766e-06
9.1009e-09
-1.44596e-06
8.3011e-09
-1.45345e-06
7.48935e-09
-1.46012e-06
6.67406e-09
-1.46599e-06
5.86319e-09
-1.47105e-06
5.06192e-09
-1.47533e-06
4.27743e-09
-1.47884e-06
3.51559e-09
-1.48162e-06
2.78066e-09
-1.48369e-06
2.0734e-09
-1.48509e-06
1.39219e-09
-1.48582e-06
7.30522e-10
-1.4859e-06
7.85862e-11
-1.48534e-06
-5.56799e-10
-1.48416e-06
-1.17809e-09
-1.48238e-06
-1.78032e-09
-1.47999e-06
-2.38916e-09
-1.47696e-06
-3.03151e-09
-1.47324e-06
-3.72051e-09
-1.46877e-06
-4.47323e-09
-1.46346e-06
-5.30333e-09
-1.45724e-06
-6.22313e-09
-1.45e-06
-7.24209e-09
-1.44163e-06
-8.3666e-09
-1.43203e-06
-9.59834e-09
-1.4211e-06
-1.09342e-08
-1.40873e-06
-1.23656e-08
-1.39485e-06
-1.38792e-08
-1.3794e-06
-1.54569e-08
-1.36232e-06
-1.7081e-08
-1.34359e-06
-1.87274e-08
-1.32322e-06
-2.03668e-08
-1.30125e-06
-2.1968e-08
-1.27775e-06
-2.35026e-08
-1.25281e-06
-2.4946e-08
-1.22654e-06
-2.62693e-08
-1.19909e-06
-2.74473e-08
-1.17063e-06
-2.84621e-08
-1.14132e-06
-2.9302e-08
-1.11136e-06
-2.99618e-08
-1.08092e-06
-3.04424e-08
-1.05017e-06
-3.07528e-08
-1.01926e-06
-3.09092e-08
-9.88325e-07
-3.09337e-08
-9.57472e-07
-3.08533e-08
-9.26774e-07
-3.06978e-08
-8.96275e-07
-3.04984e-08
-8.65989e-07
-3.0286e-08
-8.35899e-07
-3.00905e-08
-8.0596e-07
-2.9939e-08
-7.76104e-07
-2.98556e-08
-7.46244e-07
-2.98605e-08
-7.16274e-07
-2.99694e-08
-6.86082e-07
-3.01924e-08
-6.55549e-07
-3.05332e-08
-6.24559e-07
-3.099e-08
-5.93004e-07
-3.15548e-08
-5.6079e-07
-3.22141e-08
-5.2784e-07
-3.29494e-08
-4.94103e-07
-3.37373e-08
-4.59553e-07
-3.455e-08
-4.24196e-07
-3.53573e-08
-3.88065e-07
-3.6131e-08
-3.51229e-07
-3.68356e-08
-3.13784e-07
-3.74452e-08
-2.75829e-07
-3.79546e-08
-2.37506e-07
-3.83235e-08
-1.98955e-07
-3.85508e-08
-1.60305e-07
-3.86498e-08
-1.2168e-07
-3.86251e-08
-8.32057e-08
-3.84746e-08
-4.49973e-08
-3.82083e-08
-7.17018e-09
-3.78272e-08
3.01075e-08
-3.72776e-08
6.65495e-08
-3.64421e-08
1.01966e-07
-3.54164e-08
1.36171e-07
-3.42055e-08
1.68967e-07
-3.27952e-08
1.98887e-07
-2.992e-08
2.27403e-07
-2.85165e-08
2.45064e-07
-1.76612e-08
-2.44883e-09
2.47513e-07
1.2154e-10
3.03552e-09
7.90764e-09
-6.29862e-09
2.60857e-08
-2.29626e-08
5.15631e-08
-3.80954e-08
7.97044e-08
-4.71667e-08
1.07289e-07
-5.05516e-08
1.32717e-07
-5.01111e-08
1.55451e-07
-4.74945e-08
1.75462e-07
-4.37683e-08
1.9291e-07
-3.95392e-08
2.08006e-07
-3.51427e-08
2.20965e-07
-3.07693e-08
2.31982e-07
-2.65324e-08
2.41234e-07
-2.25049e-08
2.48886e-07
-1.87403e-08
2.55091e-07
-1.52727e-08
2.59986e-07
-1.21193e-08
2.63705e-07
-9.29842e-09
2.66382e-07
-6.82343e-09
2.68141e-07
-4.7006e-09
2.69104e-07
-2.93151e-09
2.69399e-07
-1.5212e-09
2.69108e-07
-4.2364e-10
2.6833e-07
3.57945e-10
2.67148e-07
8.37457e-10
2.65613e-07
1.06696e-09
2.63766e-07
1.09036e-09
2.61616e-07
9.74163e-10
2.59159e-07
7.81184e-10
2.56377e-07
5.68358e-10
2.53238e-07
3.83456e-10
2.49705e-07
2.66054e-10
2.45731e-07
2.54575e-10
2.41264e-07
3.87505e-10
2.36228e-07
7.06231e-10
2.30493e-07
1.24842e-09
2.23911e-07
2.04862e-09
2.16297e-07
3.13236e-09
2.07419e-07
4.53216e-09
1.96986e-07
6.29534e-09
1.84639e-07
8.47912e-09
1.69954e-07
1.11433e-08
1.52327e-07
1.44624e-08
1.31034e-07
1.85351e-08
1.05173e-07
2.35269e-08
7.36274e-08
2.96847e-08
3.5059e-08
3.7385e-08
-1.19655e-08
4.70879e-08
-6.8951e-08
5.85946e-08
-1.37037e-07
7.14502e-08
-2.16655e-07
8.5796e-08
-3.06114e-07
1.00662e-07
-4.02413e-07
1.15652e-07
-5.01584e-07
1.3051e-07
-5.98781e-07
1.4455e-07
-6.9048e-07
1.56694e-07
-7.74556e-07
1.65412e-07
-8.54127e-07
1.69408e-07
-9.34232e-07
1.67886e-07
-1.01422e-06
1.63094e-07
-1.09234e-06
1.56741e-07
-1.16775e-06
1.49608e-07
-1.24002e-06
1.42179e-07
-1.30894e-06
1.34721e-07
-1.37442e-06
1.27399e-07
-1.43648e-06
1.20306e-07
-1.49519e-06
1.13476e-07
-1.55062e-06
1.06927e-07
-1.60288e-06
1.00669e-07
-1.65208e-06
9.47061e-08
-1.69833e-06
8.90348e-08
-1.74176e-06
8.36498e-08
-1.78251e-06
7.85473e-08
-1.82071e-06
7.37297e-08
-1.8565e-06
6.91908e-08
-1.89002e-06
6.49187e-08
-1.92139e-06
6.09117e-08
-1.95074e-06
5.71654e-08
-1.97818e-06
5.36736e-08
-2.00384e-06
5.04282e-08
-2.02783e-06
4.74186e-08
-2.05025e-06
4.4631e-08
-2.0712e-06
4.20492e-08
-2.09078e-06
3.96537e-08
-2.10905e-06
3.74231e-08
-2.12608e-06
3.53329e-08
-2.14191e-06
3.3358e-08
-2.1566e-06
3.14746e-08
-2.17017e-06
2.96582e-08
-2.18263e-06
2.78837e-08
-2.194e-06
2.61283e-08
-2.20425e-06
2.43713e-08
-2.21339e-06
2.25952e-08
-2.2214e-06
2.07864e-08
-2.22824e-06
1.89355e-08
-2.2339e-06
1.70366e-08
-2.23834e-06
1.5088e-08
-2.24155e-06
1.30915e-08
-2.2435e-06
1.10521e-08
-2.24418e-06
8.97849e-09
-2.24357e-06
6.88074e-09
-2.24167e-06
4.7746e-09
-2.23848e-06
2.67643e-09
-2.23402e-06
5.94763e-10
-2.22829e-06
-1.44807e-09
-2.22134e-06
-3.43203e-09
-2.21321e-06
-5.35454e-09
-2.20392e-06
-7.21587e-09
-2.19351e-06
-9.01566e-09
-2.18202e-06
-1.07583e-08
-2.16949e-06
-1.24539e-08
-2.15593e-06
-1.41205e-08
-2.14133e-06
-1.57775e-08
-2.12566e-06
-1.74434e-08
-2.10891e-06
-1.9142e-08
-2.09104e-06
-2.09033e-08
-2.07201e-06
-2.27553e-08
-2.05175e-06
-2.47244e-08
-2.03022e-06
-2.68338e-08
-2.00734e-06
-2.91031e-08
-1.98304e-06
-3.15467e-08
-1.95723e-06
-3.41724e-08
-1.92985e-06
-3.69796e-08
-1.90083e-06
-3.99587e-08
-1.8701e-06
-4.30903e-08
-1.83764e-06
-4.63459e-08
-1.8034e-06
-4.96892e-08
-1.76741e-06
-5.30761e-08
-1.72968e-06
-5.64572e-08
-1.69027e-06
-5.97787e-08
-1.64925e-06
-6.29818e-08
-1.60674e-06
-6.60113e-08
-1.56287e-06
-6.88163e-08
-1.5178e-06
-7.13432e-08
-1.4717e-06
-7.35478e-08
-1.42476e-06
-7.5399e-08
-1.37719e-06
-7.68781e-08
-1.32917e-06
-7.79793e-08
-1.2809e-06
-7.87105e-08
-1.23256e-06
-7.90941e-08
-1.1843e-06
-7.91667e-08
-1.13626e-06
-7.8976e-08
-1.08853e-06
-7.85787e-08
-1.0412e-06
-7.80363e-08
-9.94282e-07
-7.74126e-08
-9.47797e-07
-7.67706e-08
-9.01718e-07
-7.61698e-08
-8.55993e-07
-7.56637e-08
-8.1055e-07
-7.52993e-08
-7.65294e-07
-7.51159e-08
-7.2012e-07
-7.51434e-08
-6.74913e-07
-7.54001e-08
-6.29554e-07
-7.58914e-08
-5.83932e-07
-7.6612e-08
-5.37943e-07
-7.75443e-08
-4.91497e-07
-7.866e-08
-4.44526e-07
-7.99206e-08
-3.96985e-07
-8.12783e-08
-3.48858e-07
-8.26769e-08
-3.0016e-07
-8.40553e-08
-2.50933e-07
-8.53574e-08
-2.01256e-07
-8.65131e-08
-1.51234e-07
-8.74669e-08
-1.00965e-07
-8.82234e-08
-5.06098e-08
-8.8679e-08
-2.89204e-10
-8.88714e-08
4.98566e-08
-8.87956e-08
9.97073e-08
-8.84757e-08
1.49154e-07
-8.79217e-08
1.98096e-07
-8.71497e-08
2.46437e-07
-8.61686e-08
2.9412e-07
-8.49606e-08
3.41143e-07
-8.34653e-08
3.87445e-07
-8.17184e-08
4.32864e-07
-7.96242e-08
4.77133e-07
-7.70646e-08
5.19773e-07
-7.256e-08
5.59232e-07
-6.79751e-08
5.94989e-07
-5.34181e-08
-2.61048e-08
6.18645e-07
4.41941e-09
-1.38389e-09
2.40788e-08
-2.5958e-08
5.34419e-08
-5.23257e-08
8.31971e-08
-6.78507e-08
1.08535e-07
-7.25046e-08
1.28731e-07
-7.0747e-08
1.44681e-07
-6.60613e-08
1.57462e-07
-6.02759e-08
1.679e-07
-5.42061e-08
1.76547e-07
-4.81862e-08
1.83758e-07
-4.23541e-08
1.89763e-07
-3.67736e-08
1.94709e-07
-3.14785e-08
1.98696e-07
-2.64919e-08
2.01792e-07
-2.18365e-08
2.04046e-07
-1.75272e-08
2.055e-07
-1.35727e-08
2.06192e-07
-9.99002e-09
2.0616e-07
-6.7921e-09
2.05441e-07
-3.98168e-09
2.04063e-07
-1.55281e-09
2.02051e-07
4.90461e-10
1.99453e-07
2.17378e-09
1.96279e-07
3.53209e-09
1.92514e-07
4.60286e-09
1.8814e-07
5.44076e-09
1.83115e-07
6.11501e-09
1.77385e-07
6.70512e-09
1.70873e-07
7.29294e-09
1.63486e-07
7.95489e-09
1.55112e-07
8.75752e-09
1.45617e-07
9.76114e-09
1.34842e-07
1.10298e-08
1.22587e-07
1.26422e-08
1.08605e-07
1.46888e-08
9.25814e-08
1.72717e-08
7.41322e-08
2.04978e-08
5.27934e-08
2.44711e-08
2.80167e-08
2.93089e-08
-8.38037e-10
3.515e-08
-3.44982e-08
4.21393e-08
-7.3796e-08
5.0441e-08
-1.19564e-07
6.023e-08
-1.72661e-07
7.1632e-08
-2.3377e-07
8.46368e-08
-3.03146e-07
9.90601e-08
-3.80391e-07
1.1463e-07
-4.64311e-07
1.31008e-07
-5.53083e-07
1.47367e-07
-6.44396e-07
1.62763e-07
-7.35576e-07
1.76976e-07
-8.2485e-07
1.89936e-07
-9.10814e-07
2.01615e-07
-9.92188e-07
2.11884e-07
-1.06818e-06
2.20542e-07
-1.13858e-06
2.27096e-07
-1.20388e-06
2.30711e-07
-1.2653e-06
2.30824e-07
-1.32506e-06
2.2765e-07
-1.38398e-06
2.22009e-07
-1.44191e-06
2.1467e-07
-1.49855e-06
2.06256e-07
-1.55361e-06
1.9724e-07
-1.60684e-06
1.87948e-07
-1.65804e-06
1.786e-07
-1.70708e-06
1.6934e-07
-1.75386e-06
1.60265e-07
-1.79837e-06
1.51432e-07
-1.84058e-06
1.42879e-07
-1.8805e-06
1.3463e-07
-1.91817e-06
1.26702e-07
-1.95363e-06
1.19105e-07
-1.98693e-06
1.11849e-07
-2.01814e-06
1.0494e-07
-2.04733e-06
9.83798e-08
-2.07458e-06
9.21702e-08
-2.09998e-06
8.63124e-08
-2.12362e-06
8.08051e-08
-2.14559e-06
7.56436e-08
-2.16598e-06
7.08193e-08
-2.18488e-06
6.63188e-08
-2.20237e-06
6.2124e-08
-2.21854e-06
5.82115e-08
-2.23344e-06
5.45539e-08
-2.24713e-06
5.11197e-08
-2.25967e-06
4.78746e-08
-2.2711e-06
4.47827e-08
-2.28143e-06
4.1808e-08
-2.29069e-06
3.89142e-08
-2.29887e-06
3.60663e-08
-2.30597e-06
3.32314e-08
-2.31198e-06
3.03804e-08
-2.31688e-06
2.74888e-08
-2.32063e-06
2.4538e-08
-2.32321e-06
2.15151e-08
-2.32458e-06
1.84136e-08
-2.32473e-06
1.5232e-08
-2.32361e-06
1.19749e-08
-2.32121e-06
8.65136e-09
-2.31751e-06
5.27502e-09
-2.31249e-06
1.85941e-09
-2.30615e-06
-1.56508e-09
-2.29851e-06
-4.95938e-09
-2.28959e-06
-8.3287e-09
-2.2794e-06
-1.16402e-08
-2.26795e-06
-1.48728e-08
-2.25529e-06
-1.8015e-08
-2.24145e-06
-2.1061e-08
-2.22645e-06
-2.40108e-08
-2.21034e-06
-2.68718e-08
-2.19313e-06
-2.96605e-08
-2.17485e-06
-3.24024e-08
-2.1555e-06
-3.5128e-08
-2.13507e-06
-3.78701e-08
-2.11355e-06
-4.06641e-08
-2.09091e-06
-4.35488e-08
-2.0671e-06
-4.65635e-08
-2.04208e-06
-4.9745e-08
-2.01579e-06
-5.31257e-08
-1.98816e-06
-5.6732e-08
-1.95912e-06
-6.05824e-08
-1.92861e-06
-6.46857e-08
-1.89655e-06
-6.90387e-08
-1.86288e-06
-7.36253e-08
-1.82756e-06
-7.84154e-08
-1.79054e-06
-8.33656e-08
-1.75181e-06
-8.8421e-08
-1.71137e-06
-9.35147e-08
-1.66925e-06
-9.85723e-08
-1.62552e-06
-1.03514e-07
-1.58025e-06
-1.08253e-07
-1.53355e-06
-1.12708e-07
-1.48557e-06
-1.168e-07
-1.43645e-06
-1.20454e-07
-1.3864e-06
-1.23605e-07
-1.33559e-06
-1.26211e-07
-1.28422e-06
-1.28244e-07
-1.2325e-06
-1.297e-07
-1.18061e-06
-1.30594e-07
-1.12874e-06
-1.30964e-07
-1.07705e-06
-1.30866e-07
-1.02565e-06
-1.30375e-07
-9.74647e-07
-1.29578e-07
-9.24116e-07
-1.28568e-07
-8.74087e-07
-1.27441e-07
-8.24565e-07
-1.26293e-07
-7.75521e-07
-1.25213e-07
-7.26904e-07
-1.24281e-07
-6.78638e-07
-1.23565e-07
-6.30629e-07
-1.23125e-07
-5.8277e-07
-1.23003e-07
-5.34944e-07
-1.23226e-07
-4.87032e-07
-1.23803e-07
-4.38922e-07
-1.24723e-07
-3.90506e-07
-1.2596e-07
-3.41696e-07
-1.2747e-07
-2.9242e-07
-1.29197e-07
-2.42631e-07
-1.31067e-07
-1.92311e-07
-1.32997e-07
-1.41472e-07
-1.34894e-07
-9.01547e-08
-1.36675e-07
-3.84315e-08
-1.38236e-07
1.36193e-08
-1.39518e-07
6.5805e-08
-1.40409e-07
1.18068e-07
-1.40942e-07
1.70252e-07
-1.41056e-07
2.22228e-07
-1.40771e-07
2.73879e-07
-1.40127e-07
3.25115e-07
-1.39158e-07
3.75872e-07
-1.37906e-07
4.26115e-07
-1.36412e-07
4.75851e-07
-1.34696e-07
5.25111e-07
-1.32725e-07
5.73862e-07
-1.30469e-07
6.21993e-07
-1.27756e-07
6.6926e-07
-1.24331e-07
7.15501e-07
-1.18802e-07
7.59463e-07
-1.11937e-07
8.01863e-07
-9.58182e-08
-6.432e-08
8.40078e-07
1.00606e-08
-1.14445e-08
3.8764e-08
-5.46614e-08
6.88944e-08
-8.24561e-08
9.11252e-08
-9.00816e-08
1.05961e-07
-8.73407e-08
1.16251e-07
-8.10365e-08
1.23999e-07
-7.38095e-08
1.30213e-07
-6.649e-08
1.35337e-07
-5.933e-08
1.39566e-07
-5.2415e-08
1.42992e-07
-4.57806e-08
1.45665e-07
-3.94467e-08
1.47614e-07
-3.34274e-08
1.48858e-07
-2.7736e-08
1.49409e-07
-2.23875e-08
1.49273e-07
-1.73914e-08
1.48457e-07
-1.27558e-08
1.4696e-07
-8.49339e-09
1.44782e-07
-4.61419e-09
1.41921e-07
-1.12111e-09
1.38351e-07
2.01722e-09
1.34047e-07
4.79496e-09
1.28975e-07
7.24527e-09
1.23093e-07
9.4147e-09
1.16333e-07
1.13625e-08
1.0861e-07
1.31639e-08
9.98161e-08
1.4909e-08
8.98199e-08
1.67013e-08
7.84632e-08
1.86496e-08
6.55573e-08
2.08608e-08
5.08742e-08
2.34407e-08
3.41426e-08
2.64927e-08
1.50444e-08
3.0128e-08
-6.79002e-09
3.44766e-08
-3.17902e-08
3.9689e-08
-6.04489e-08
4.59304e-08
-9.33169e-08
5.33658e-08
-1.30977e-07
6.21314e-08
-1.73999e-07
7.23303e-08
-2.22885e-07
8.40363e-08
-2.78006e-07
9.72608e-08
-3.39483e-07
1.11918e-07
-4.07086e-07
1.27833e-07
-4.80221e-07
1.44768e-07
-5.57876e-07
1.62291e-07
-6.38524e-07
1.79708e-07
-7.20303e-07
1.96409e-07
-8.01326e-07
2.1203e-07
-8.8024e-07
2.26281e-07
-9.5632e-07
2.38843e-07
-1.02901e-06
2.49664e-07
-1.09789e-06
2.58817e-07
-1.16264e-06
2.66368e-07
-1.22312e-06
2.72367e-07
-1.27932e-06
2.76743e-07
-1.33148e-06
2.79253e-07
-1.38031e-06
2.79536e-07
-1.42683e-06
2.77343e-07
-1.47197e-06
2.72797e-07
-1.51627e-06
2.66304e-07
-1.55991e-06
2.5831e-07
-1.60288e-06
2.49227e-07
-1.64505e-06
2.39412e-07
-1.68625e-06
2.2915e-07
-1.72631e-06
2.18656e-07
-1.76506e-06
2.08089e-07
-1.80236e-06
1.97569e-07
-1.83812e-06
1.87183e-07
-1.87223e-06
1.76997e-07
-1.90466e-06
1.67058e-07
-1.93536e-06
1.57405e-07
-1.96433e-06
1.48069e-07
-1.99156e-06
1.39078e-07
-2.01707e-06
1.30453e-07
-2.0409e-06
1.22211e-07
-2.0631e-06
1.14368e-07
-2.08372e-06
1.06934e-07
-2.10283e-06
9.99168e-08
-2.1205e-06
9.33158e-08
-2.13681e-06
8.71246e-08
-2.15182e-06
8.13299e-08
-2.16561e-06
7.59103e-08
-2.17823e-06
7.08374e-08
-2.18975e-06
6.60761e-08
-2.20022e-06
6.1586e-08
-2.20967e-06
5.73226e-08
-2.21812e-06
5.3239e-08
-2.2256e-06
4.92875e-08
-2.23211e-06
4.54208e-08
-2.23764e-06
4.15932e-08
-2.24217e-06
3.77627e-08
-2.24568e-06
3.3892e-08
-2.24814e-06
2.99504e-08
-2.24952e-06
2.59144e-08
-2.24977e-06
2.17686e-08
-2.24886e-06
1.75058e-08
-2.24676e-06
1.31265e-08
-2.24342e-06
8.63887e-09
-2.23883e-06
4.05765e-09
-2.23295e-06
-6.05992e-10
-2.22579e-06
-5.29528e-09
-2.21735e-06
-1.00099e-08
-2.20761e-06
-1.47022e-08
-2.19659e-06
-1.93455e-08
-2.18432e-06
-2.39095e-08
-2.17083e-06
-2.83675e-08
-2.15614e-06
-3.27011e-08
-2.1403e-06
-3.69009e-08
-2.12334e-06
-4.09672e-08
-2.1053e-06