/*--------------------------------*- C++ -*----------------------------------*\
| =========                 |                                                 |
| \\      /  F ield         | OpenFOAM: The Open Source CFD Toolbox           |
|  \\    /   O peration     | Version:  2312                                  |
|   \\  /    A nd           | Website:  www.openfoam.com                      |
|    \\/     M anipulation  |                                                 |
\*---------------------------------------------------------------------------*/
FoamFile
{
    version     2.0;
    format      ascii;
    arch        "LSB;label=32;scalar=64";
    class       surfaceScalarField;
    location    "0.2";
    object      phi_0;
}
// * * * * * * * * * * * * * * * * * * * * * * * * * * * * * * * * * * * * * //

dimensions      [0 3 -1 0 0 0 0];

oriented        oriented;

internalField   nonuniform List<scalar> 
24170
(
3.04091e-06
1.75253e-07
2.57285e-06
4.6806e-07
1.79544e-06
7.77406e-07
1.26593e-06
5.2951e-07
1.00771e-06
2.58223e-07
9.05484e-07
1.02228e-07
8.71544e-07
3.39392e-08
8.64899e-07
6.64518e-09
8.65448e-07
-5.48818e-10
8.65737e-07
-2.88535e-10
8.64691e-07
1.04584e-09
8.63616e-07
1.07492e-09
8.62782e-07
8.34039e-10
8.6403e-07
-1.24857e-09
8.64315e-07
-2.84467e-10
8.71101e-07
-6.78637e-09
8.70879e-07
2.22267e-10
-3.46187e-08
9.05498e-07
3.49341e-06
1.88278e-07
3.44811e-06
5.13362e-07
3.31076e-06
9.1476e-07
3.03274e-06
8.07526e-07
2.77427e-06
5.16692e-07
2.58572e-06
2.90786e-07
2.45403e-06
1.65627e-07
2.35976e-06
1.00912e-07
2.29034e-06
6.88697e-08
2.23838e-06
5.16735e-08
2.19904e-06
4.03885e-08
2.16915e-06
3.09579e-08
2.14615e-06
2.38352e-08
2.12911e-06
1.57967e-08
2.11655e-06
1.22756e-08
2.10751e-06
2.25078e-09
2.10917e-06
-1.43749e-09
-2.69991e-08
2.10155e-06
3.63993e-06
1.04263e-07
3.6966e-06
4.56684e-07
3.78932e-06
8.22045e-07
3.79209e-06
8.04749e-07
3.73114e-06
5.77649e-07
3.65325e-06
3.68673e-07
3.57132e-06
2.47554e-07
3.48659e-06
1.85648e-07
3.40302e-06
1.52434e-07
3.32531e-06
1.29389e-07
3.25665e-06
1.09052e-07
3.19848e-06
8.91242e-08
3.15046e-06
7.18518e-08
3.11099e-06
5.52662e-08
3.0795e-06
4.37675e-08
3.05309e-06
2.86646e-08
3.03423e-06
1.742e-08
-5.31837e-09
3.01255e-06
3.90161e-06
8.11009e-08
3.95599e-06
4.0231e-07
4.05326e-06
7.24771e-07
4.12303e-06
7.34982e-07
4.1502e-06
5.50482e-07
4.15473e-06
3.64142e-07
4.14784e-06
2.54442e-07
4.1294e-06
2.04086e-07
4.10167e-06
1.80167e-07
4.06859e-06
1.62472e-07
4.03342e-06
1.4422e-07
3.99855e-06
1.23995e-07
3.96545e-06
1.0495e-07
3.93449e-06
8.62223e-08
3.90663e-06
7.16332e-08
3.8804e-06
5.48919e-08
3.85747e-06
4.03486e-08
1.9991e-08
3.83216e-06
4.21176e-06
9.03127e-08
4.2559e-06
3.58168e-07
4.34354e-06
6.3713e-07
4.41654e-06
6.61983e-07
4.45555e-06
5.11467e-07
4.46939e-06
3.503e-07
4.47358e-06
2.50256e-07
4.47445e-06
2.03213e-07
4.47389e-06
1.80734e-07
4.47237e-06
1.63991e-07
4.46966e-06
1.46931e-07
4.46503e-06
1.28619e-07
4.4585e-06
1.1148e-07
4.45012e-06
9.46078e-08
4.44167e-06
8.00792e-08
4.43253e-06
6.40316e-08
4.42444e-06
4.84433e-08
3.04979e-08
4.41393e-06
4.5126e-06
-1.13477e-08
4.57932e-06
2.91451e-07
4.66051e-06
5.55941e-07
4.73081e-06
5.91675e-07
4.76852e-06
4.73758e-07
4.78067e-06
3.38154e-07
4.78311e-06
2.47809e-07
4.78526e-06
2.01063e-07
4.7893e-06
1.76703e-07
4.79424e-06
1.5905e-07
4.79864e-06
1.42528e-07
4.80123e-06
1.26026e-07
4.80202e-06
1.10693e-07
4.80103e-06
9.5602e-08
4.7998e-06
8.13065e-08
4.79803e-06
6.58013e-08
4.79665e-06
4.98208e-08
3.31178e-08
4.79403e-06
4.87971e-06
-1.60729e-08
4.91904e-06
2.52119e-07
4.9897e-06
4.85281e-07
5.05846e-06
5.2292e-07
5.0974e-06
4.34814e-07
5.1113e-06
3.24254e-07
5.11549e-06
2.43627e-07
5.11925e-06
1.973e-07
5.12464e-06
1.71314e-07
5.13034e-06
1.53347e-07
5.13488e-06
1.37993e-07
5.13747e-06
1.23428e-07
5.13856e-06
1.09608e-07
5.1386e-06
9.55604e-08
5.13872e-06
8.11901e-08
5.13886e-06
6.56546e-08
5.13923e-06
4.9456e-08
3.3342e-08
5.139e-06
5.27281e-06
-3.00821e-08
5.27489e-06
2.50039e-07
5.3313e-06
4.28877e-07
5.39697e-06
4.57243e-07
5.44002e-06
3.91764e-07
5.46004e-06
3.04238e-07
5.46942e-06
2.34244e-07
5.47671e-06
1.90008e-07
5.48389e-06
1.64139e-07
5.4899e-06
1.47338e-07
5.49377e-06
1.34124e-07
5.49543e-06
1.21766e-07
5.49577e-06
1.09262e-07
5.49566e-06
9.56799e-08
5.49595e-06
8.08999e-08
5.49668e-06
6.49174e-08
5.4977e-06
4.84354e-08
3.26102e-08
5.49843e-06
5.56966e-06
-7.03572e-08
5.60522e-06
2.14481e-07
5.67306e-06
3.61042e-07
5.74294e-06
3.87359e-07
5.79338e-06
3.41321e-07
5.82342e-06
2.74203e-07
5.84119e-06
2.16474e-07
5.85406e-06
1.77134e-07
5.86434e-06
1.53859e-07
5.87156e-06
1.40115e-07
5.87547e-06
1.30218e-07
5.87673e-06
1.20507e-07
5.87669e-06
1.09304e-07
5.87648e-06
9.58831e-08
5.8769e-06
8.04853e-08
5.87798e-06
6.38371e-08
5.87942e-06
4.69909e-08
3.13297e-08
5.8807e-06
5.95766e-06
-1.37612e-09
5.97605e-06
1.96097e-07
6.03893e-06
2.98152e-07
6.10836e-06
3.17934e-07
6.16305e-06
2.86629e-07
6.20134e-06
2.35918e-07
6.22829e-06
1.8952e-07
6.2483e-06
1.57127e-07
6.26328e-06
1.38875e-07
6.2733e-06
1.30101e-07
6.27873e-06
1.24786e-07
6.28085e-06
1.18381e-07
6.2814e-06
1.08764e-07
6.28172e-06
9.55556e-08
6.28262e-06
7.95832e-08
6.28418e-06
6.22789e-08
6.28608e-06
4.50934e-08
2.95886e-08
6.28782e-06
6.34404e-06
-6.47196e-09
6.39619e-06
1.43944e-07
6.45355e-06
2.4079e-07
6.51278e-06
2.58712e-07
6.5616e-06
2.37802e-07
6.60045e-06
1.97073e-07
6.63297e-06
1.56999e-07
6.65973e-06
1.30369e-07
6.68027e-06
1.18332e-07
6.69448e-06
1.1589e-07
6.70308e-06
1.16187e-07
6.70763e-06
1.1383e-07
6.71003e-06
1.06363e-07
6.7118e-06
9.37847e-08
6.71381e-06
7.75794e-08
6.71622e-06
5.98695e-08
6.71879e-06
4.25218e-08
2.72889e-08
6.72109e-06
5.73335e-06
-2.29435e-07
5.78384e-06
9.34547e-08
5.81359e-06
2.11037e-07
5.84766e-06
2.24642e-07
5.88036e-06
2.0511e-07
5.91025e-06
1.67176e-07
5.93815e-06
1.29104e-07
5.96311e-06
1.05409e-07
5.98347e-06
9.79683e-08
5.99854e-06
1.00827e-07
6.00868e-06
1.06037e-07
6.0151e-06
1.07418e-07
6.01928e-06
1.02177e-07
6.02253e-06
9.05407e-08
6.0256e-06
7.45071e-08
6.02871e-06
5.67565e-08
6.03174e-06
3.94975e-08
2.46882e-08
6.03434e-06
7.03901e-06
-1.6116e-07
7.05818e-06
7.42897e-08
7.08849e-06
1.80725e-07
7.11386e-06
1.99275e-07
7.14352e-06
1.75453e-07
7.17488e-06
1.35817e-07
7.20552e-06
9.84584e-08
7.23388e-06
7.7054e-08
7.25824e-06
7.36058e-08
7.27753e-06
8.15334e-08
7.29174e-06
9.1824e-08
7.30183e-06
9.73325e-08
7.30924e-06
9.47666e-08
7.3153e-06
8.44785e-08
7.32085e-06
6.89641e-08
7.32612e-06
5.1486e-08
7.33098e-06
3.46341e-08
2.05966e-08
7.33507e-06
8.57906e-06
-1.84916e-07
8.63437e-06
1.89835e-08
8.64979e-06
1.65299e-07
8.66823e-06
1.80844e-07
8.69441e-06
1.49271e-07
8.72352e-06
1.06704e-07
8.7526e-06
6.93735e-08
8.78075e-06
4.89047e-08
8.80656e-06
4.77967e-08
8.82848e-06
5.96172e-08
8.84595e-06
7.43552e-08
8.85963e-06
8.3647e-08
8.87083e-06
8.35721e-08
8.88073e-06
7.45808e-08
8.88999e-06
5.96975e-08
8.89871e-06
4.2771e-08
8.90658e-06
2.67615e-08
1.4043e-08
8.91313e-06
1.04153e-05
-1.68118e-07
1.04521e-05
-1.77949e-08
1.05246e-05
9.28729e-08
1.05754e-05
1.30035e-07
1.06054e-05
1.19237e-07
1.06262e-05
8.58929e-08
1.06478e-05
4.77667e-08
1.06729e-05
2.38667e-08
1.06986e-05
2.20084e-08
1.07219e-05
3.638e-08
1.07414e-05
5.48498e-08
1.07579e-05
6.71649e-08
1.07726e-05
6.88014e-08
1.07867e-05
6.05578e-08
1.08002e-05
4.6157e-08
1.0813e-05
3.00122e-08
1.08244e-05
1.53464e-08
4.50239e-09
1.08339e-05
1.29421e-05
-1.20483e-07
1.29613e-05
-3.70079e-08
1.30071e-05
4.71013e-08
1.30317e-05
1.05457e-07
1.30374e-05
1.13517e-07
1.30401e-05
8.31915e-08
1.30479e-05
4.00191e-08
1.30598e-05
1.1943e-08
1.3072e-05
9.773e-09
1.30827e-05
2.56514e-08
1.30928e-05
4.48366e-08
1.31035e-05
5.64086e-08
1.31159e-05
5.6445e-08
1.31298e-05
4.66599e-08
1.31445e-05
3.14603e-08
1.3159e-05
1.5517e-08
1.31724e-05
1.93758e-09
-7.14477e-09
1.3184e-05
1.53796e-05
-1.5348e-07
1.54136e-05
-7.10045e-08
1.55072e-05
-4.64784e-08
1.56294e-05
-1.68272e-08
1.57274e-05
1.5551e-08
1.57875e-05
2.30966e-08
1.58178e-05
9.76313e-09
1.58319e-05
-2.20342e-09
1.58417e-05
-5.21561e-11
1.58542e-05
1.31349e-08
1.58713e-05
2.77847e-08
1.58922e-05
3.54689e-08
1.59156e-05
3.30577e-08
1.59402e-05
2.20497e-08
1.5965e-05
6.71446e-09
1.59892e-05
-8.74828e-09
1.60125e-05
-2.13078e-08
-2.88416e-08
1.60342e-05
1.85172e-05
5.6261e-08
1.85476e-05
-1.01364e-07
1.86754e-05
-1.74309e-07
1.88183e-05
-1.59747e-07
1.89514e-05
-1.17515e-07
1.90525e-05
-7.80295e-08
1.91152e-05
-5.29522e-08
1.91518e-05
-3.87525e-08
1.91778e-05
-2.61011e-08
1.92038e-05
-1.28335e-08
1.92336e-05
-2.01194e-09
1.92661e-05
3.01533e-09
1.92995e-05
-3.86756e-10
1.93323e-05
-1.07474e-08
1.93642e-05
-2.5196e-08
1.93953e-05
-3.98445e-08
1.94261e-05
-5.2082e-08
-5.95528e-08
1.94568e-05
2.30846e-05
4.35192e-08
2.30779e-05
-9.46594e-08
2.30157e-05
-1.12179e-07
2.29651e-05
-1.09159e-07
2.29869e-05
-1.39272e-07
2.30689e-05
-1.6006e-07
2.31667e-05
-1.50724e-07
2.32484e-05
-1.20469e-07
2.33085e-05
-8.61509e-08
2.33545e-05
-5.88799e-08
2.33942e-05
-4.16694e-08
2.34308e-05
-3.36032e-08
2.34634e-05
-3.29461e-08
2.34905e-05
-3.79087e-08
2.35122e-05
-4.6835e-08
2.35301e-05
-5.77943e-08
2.35472e-05
-6.9209e-08
-7.93052e-08
2.3567e-05
1.65755e-05
-3.44979e-09
1.66128e-05
-1.31934e-07
1.66368e-05
-1.3619e-07
1.66877e-05
-1.60022e-07
1.67646e-05
-2.16185e-07
1.68582e-05
-2.53673e-07
1.69536e-05
-2.46151e-07
1.70406e-05
-2.07481e-07
1.71164e-05
-1.61943e-07
1.71818e-05
-1.24215e-07
1.72377e-05
-9.7657e-08
1.72843e-05
-8.01623e-08
1.73205e-05
-6.91489e-08
1.73458e-05
-6.31964e-08
1.73608e-05
-6.1795e-08
1.73673e-05
-6.43442e-08
1.7368e-05
-6.99094e-08
-7.71237e-08
1.73658e-05
1.47698e-05
-8.68972e-08
1.47335e-05
-9.56648e-08
1.46949e-05
-9.76187e-08
1.46838e-05
-1.48923e-07
1.46964e-05
-2.28805e-07
1.47259e-05
-2.83133e-07
1.47726e-05
-2.92863e-07
1.48335e-05
-2.68345e-07
1.4901e-05
-2.29461e-07
1.49677e-05
-1.90951e-07
1.50288e-05
-1.58697e-07
1.50816e-05
-1.32944e-07
1.5125e-05
-1.12596e-07
1.51589e-05
-9.714e-08
1.51837e-05
-8.65822e-08
1.52002e-05
-8.08027e-08
1.52095e-05
-7.92032e-08
-8.10392e-08
1.52134e-05
1.26923e-05
-1.84398e-08
1.27053e-05
-1.08678e-07
1.2754e-05
-1.46241e-07
1.27992e-05
-1.94121e-07
1.28332e-05
-2.62806e-07
1.2864e-05
-3.13958e-07
1.29016e-05
-3.30495e-07
1.29496e-05
-3.16306e-07
1.30049e-05
-2.84759e-07
1.30625e-05
-2.48581e-07
1.3118e-05
-2.14139e-07
1.31679e-05
-1.82872e-07
1.32105e-05
-1.55241e-07
1.32453e-05
-1.31941e-07
1.32724e-05
-1.13618e-07
1.32922e-05
-1.00597e-07
1.33055e-05
-9.25768e-08
-8.9054e-08
1.33135e-05
1.10155e-05
-2.53087e-07
1.10914e-05
-1.84569e-07
1.11459e-05
-2.00747e-07
1.12136e-05
-2.6184e-07
1.12631e-05
-3.12284e-07
1.12961e-05
-3.46973e-07
1.13221e-05
-3.56509e-07
1.13508e-05
-3.4495e-07
1.13869e-05
-3.20911e-07
1.1429e-05
-2.90611e-07
1.14718e-05
-2.56983e-07
1.15109e-05
-2.21964e-07
1.15442e-05
-1.8858e-07
1.15716e-05
-1.5932e-07
1.15936e-05
-1.35597e-07
1.16109e-05
-1.1794e-07
1.16244e-05
-1.06004e-07
-9.92634e-08
1.16346e-05
9.66721e-06
-2.71324e-07
9.68826e-06
-2.05621e-07
9.73897e-06
-2.51453e-07
9.80573e-06
-3.28597e-07
9.8755e-06
-3.82059e-07
9.9343e-06
-4.05769e-07
9.9756e-06
-3.97817e-07
1.00032e-05
-3.7256e-07
1.00248e-05
-3.42542e-07
1.00449e-05
-3.10691e-07
1.00642e-05
-2.76243e-07
1.0082e-05
-2.3975e-07
1.0098e-05
-2.04574e-07
1.01124e-05
-1.73728e-07
1.01256e-05
-1.48825e-07
1.01379e-05
-1.30256e-07
1.01493e-05
-1.17403e-07
-1.0952e-07
1.01596e-05
8.3093e-06
-1.70807e-07
8.3377e-06
-2.34021e-07
8.39878e-06
-3.12536e-07
8.48112e-06
-4.10938e-07
8.58831e-06
-4.89246e-07
8.693e-06
-5.10456e-07
8.76792e-06
-4.72734e-07
8.81051e-06
-4.15154e-07
8.83012e-06
-3.6215e-07
8.83705e-06
-3.17623e-07
8.83849e-06
-2.77686e-07
8.83845e-06
-2.39709e-07
8.83913e-06
-2.05249e-07
8.84175e-06
-1.7635e-07
8.84674e-06
-1.53819e-07
8.85392e-06
-1.37432e-07
8.86254e-06
-1.26028e-07
-1.1851e-07
8.87153e-06
7.48313e-06
-5.28239e-08
7.39861e-06
-1.49502e-07
7.3904e-06
-3.04326e-07
7.43605e-06
-4.56581e-07
7.53026e-06
-5.83455e-07
7.63537e-06
-6.15573e-07
7.71272e-06
-5.50077e-07
7.75532e-06
-4.5776e-07
7.77237e-06
-3.79196e-07
7.77281e-06
-3.18069e-07
7.76369e-06
-2.68559e-07
7.7511e-06
-2.27119e-07
7.73965e-06
-1.93799e-07
7.73204e-06
-1.68745e-07
7.72901e-06
-1.5079e-07
7.73003e-06
-1.38451e-07
7.73364e-06
-1.29634e-07
-1.23106e-07
7.73823e-06
6.37327e-06
-1.29357e-07
6.42101e-06
-1.97239e-07
6.44986e-06
-3.33178e-07
6.5023e-06
-5.09022e-07
6.60698e-06
-6.88136e-07
6.70994e-06
-7.18525e-07
6.77713e-06
-6.17269e-07
6.80765e-06
-4.88281e-07
6.81199e-06
-3.83537e-07
6.79704e-06
-3.03118e-07
6.76918e-06
-2.40696e-07
6.73657e-06
-1.94507e-07
6.70537e-06
-1.62598e-07
6.67833e-06
-1.41706e-07
6.65559e-06
-1.28056e-07
6.63581e-06
-1.18664e-07
6.61696e-06
-1.1079e-07
-1.03651e-07
6.59751e-06
5.59151e-06
-1.04987e-07
5.59011e-06
-1.9584e-07
5.60822e-06
-3.51287e-07
5.6662e-06
-5.67005e-07
5.7832e-06
-8.0513e-07
5.84354e-06
-7.78868e-07
5.83287e-06
-6.06596e-07
5.77584e-06
-4.31252e-07
5.69369e-06
-3.0139e-07
5.59844e-06
-2.07868e-07
5.50138e-06
-1.43632e-07
5.41077e-06
-1.03901e-07
5.32937e-06
-8.11999e-08
5.25582e-06
-6.81518e-08
5.18792e-06
-6.01631e-08
5.12369e-06
-5.44293e-08
5.06209e-06
-4.91887e-08
-4.40971e-08
5.00253e-06
4.84885e-06
-3.58392e-08
4.8688e-06
-2.1579e-07
4.83865e-06
-3.21138e-07
4.81922e-06
-5.47579e-07
4.72726e-06
-7.13175e-07
4.49758e-06
-5.4918e-07
4.2313e-06
-3.40317e-07
3.98825e-06
-1.88206e-07
3.78301e-06
-9.6146e-08
3.61644e-06
-4.12964e-08
3.48608e-06
-1.32788e-08
3.38514e-06
-2.96056e-09
3.30491e-06
-9.70662e-10
3.2387e-06
-1.94287e-09
3.18221e-06
-3.66794e-09
3.13277e-06
-4.98809e-09
3.08938e-06
-5.80191e-09
-5.86139e-09
3.05115e-06
4.12288e-06
3.90709e-06
3.58595e-06
3.03837e-06
2.3252e-06
1.77602e-06
1.4357e-06
1.2475e-06
1.15135e-06
1.11005e-06
1.09678e-06
1.09381e-06
1.09284e-06
1.0909e-06
1.08723e-06
1.08225e-06
1.07644e-06
1.07058e-06
-3.15399e-09
3.15399e-09
-4.63815e-09
1.48417e-09
1.49851e-10
-4.788e-09
1.27718e-08
-1.26219e-08
3.18008e-08
-1.9029e-08
5.47711e-08
-2.29703e-08
7.94581e-08
-2.4687e-08
1.04222e-07
-2.47637e-08
1.27982e-07
-2.37605e-08
1.50077e-07
-2.20947e-08
1.70127e-07
-2.00498e-08
1.87941e-07
-1.78143e-08
2.0346e-07
-1.55192e-08
2.16717e-07
-1.3257e-08
2.27809e-07
-1.10921e-08
2.36882e-07
-9.07237e-09
2.4411e-07
-7.22844e-09
2.49693e-07
-5.58288e-09
2.53845e-07
-4.15159e-09
2.56791e-07
-2.94587e-09
2.58763e-07
-1.97226e-09
2.59994e-07
-1.23076e-09
2.60713e-07
-7.19247e-10
2.61137e-07
-4.23948e-10
2.61486e-07
-3.48901e-10
2.61957e-07
-4.71294e-10
2.62716e-07
-7.59391e-10
2.63895e-07
-1.1782e-09
2.65572e-07
-1.67709e-09
2.67787e-07
-2.21496e-09
2.70542e-07
-2.75549e-09
2.73808e-07
-3.26605e-09
2.77526e-07
-3.71731e-09
2.81602e-07
-4.07611e-09
2.85927e-07
-4.32523e-09
2.90408e-07
-4.48088e-09
2.94935e-07
-4.52714e-09
2.99409e-07
-4.47367e-09
3.03745e-07
-4.33598e-09
3.07872e-07
-4.12775e-09
3.11729e-07
-3.85718e-09
3.15259e-07
-3.52991e-09
3.18412e-07
-3.15248e-09
3.21156e-07
-2.74407e-09
3.23477e-07
-2.32153e-09
3.25324e-07
-1.84678e-09
3.26494e-07
-1.16962e-09
3.2642e-07
7.40056e-11
3.24798e-07
1.62184e-09
3.21422e-07
3.37596e-09
3.15233e-07
6.18883e-09
3.04019e-07
1.12138e-08
2.84657e-07
1.93622e-08
2.53312e-07
3.13456e-08
2.05955e-07
4.73569e-08
1.4096e-07
6.49945e-08
5.96314e-08
8.13289e-08
-3.01964e-08
8.98278e-08
-1.17964e-07
8.77674e-08
-2.01058e-07
8.30938e-08
-2.79655e-07
7.85978e-08
-3.53831e-07
7.41759e-08
-4.23719e-07
6.98877e-08
-4.89498e-07
6.57793e-08
-5.51391e-07
6.18924e-08
-6.09609e-07
5.82183e-08
-6.64348e-07
5.47395e-08
-7.15811e-07
5.14629e-08
-7.64193e-07
4.83814e-08
-8.09676e-07
4.54835e-08
-8.52434e-07
4.27581e-08
-8.92628e-07
4.01934e-08
-9.30406e-07
3.77789e-08
-9.65916e-07
3.55097e-08
-9.99296e-07
3.338e-08
-1.03068e-06
3.1387e-08
-1.06022e-06
2.95325e-08
-1.08803e-06
2.78142e-08
-1.11426e-06
2.62287e-08
-1.13903e-06
2.47715e-08
-1.16247e-06
2.34369e-08
-1.18469e-06
2.22181e-08
-1.20579e-06
2.11071e-08
-1.22589e-06
2.00943e-08
-1.24506e-06
1.91695e-08
-1.26338e-06
1.8321e-08
-1.28091e-06
1.75365e-08
-1.29772e-06
1.68034e-08
-1.31383e-06
1.61084e-08
-1.32926e-06
1.54386e-08
-1.34405e-06
1.4782e-08
-1.35817e-06
1.41279e-08
-1.37164e-06
1.34673e-08
-1.38443e-06
1.2793e-08
-1.39653e-06
1.20999e-08
-1.40792e-06
1.13847e-08
-1.41856e-06
1.06458e-08
-1.42845e-06
9.8837e-09
-1.43755e-06
9.10041e-09
-1.44585e-06
8.29949e-09
-1.45333e-06
7.48711e-09
-1.46001e-06
6.67173e-09
-1.46587e-06
5.86128e-09
-1.47093e-06
5.06094e-09
-1.47521e-06
4.27786e-09
-1.47872e-06
3.51783e-09
-1.48151e-06
2.785e-09
-1.48359e-06
2.08002e-09
-1.48499e-06
1.40112e-09
-1.48573e-06
7.41705e-10
-1.48582e-06
9.15889e-11
-1.48528e-06
-5.42325e-10
-1.48412e-06
-1.16311e-09
-1.48235e-06
-1.76549e-09
-1.47998e-06
-2.37515e-09
-1.47696e-06
-3.01901e-09
-1.47325e-06
-3.71028e-09
-1.46878e-06
-4.466e-09
-1.46348e-06
-5.29975e-09
-1.45726e-06
-6.22372e-09
-1.45001e-06
-7.24723e-09
-1.44164e-06
-8.37649e-09
-1.43202e-06
-9.61298e-09
-1.42107e-06
-1.09534e-08
-1.40868e-06
-1.23889e-08
-1.39477e-06
-1.3906e-08
-1.37929e-06
-1.54864e-08
-1.36218e-06
-1.71123e-08
-1.34342e-06
-1.87595e-08
-1.32302e-06
-2.03986e-08
-1.30102e-06
-2.19981e-08
-1.27749e-06
-2.35299e-08
-1.25252e-06
-2.49694e-08
-1.22623e-06
-2.62879e-08
-1.19877e-06
-2.74602e-08
-1.1703e-06
-2.84689e-08
-1.141e-06
-2.93024e-08
-1.11104e-06
-2.99558e-08
-1.08061e-06
-3.04303e-08
-1.04988e-06
-3.07353e-08
-1.01899e-06
-3.0887e-08
-9.88084e-07
-3.09078e-08
-9.57259e-07
-3.08249e-08
-9.26591e-07
-3.0668e-08
-8.96123e-07
-3.04683e-08
-8.65866e-07
-3.02569e-08
-8.35803e-07
-3.00635e-08
-8.05888e-07
-2.99149e-08
-7.76053e-07
-2.98352e-08
-7.46208e-07
-2.98445e-08
-7.1625e-07
-2.99582e-08
-6.86064e-07
-3.01862e-08
-6.55532e-07
-3.05321e-08
-6.24538e-07
-3.09936e-08
-5.92975e-07
-3.15628e-08
-5.60749e-07
-3.22259e-08
-5.27785e-07
-3.29641e-08
-4.94031e-07
-3.3754e-08
-4.59464e-07
-3.45676e-08
-4.24089e-07
-3.53746e-08
-3.87942e-07
-3.6147e-08
-3.51093e-07
-3.68491e-08
-3.13637e-07
-3.74554e-08
-2.75677e-07
-3.79609e-08
-2.37351e-07
-3.83255e-08
-1.98801e-07
-3.85496e-08
-1.60159e-07
-3.86425e-08
-1.21543e-07
-3.86157e-08
-8.30803e-08
-3.8463e-08
-4.48846e-08
-3.81957e-08
-7.07013e-09
-3.78145e-08
3.01959e-08
-3.7266e-08
6.66282e-08
-3.64324e-08
1.02037e-07
-3.54091e-08
1.36238e-07
-3.42009e-08
1.69031e-07
-3.27932e-08
1.98951e-07
-2.99196e-08
2.27468e-07
-2.85169e-08
2.45119e-07
-1.76514e-08
-2.39258e-09
2.47512e-07
1.2476e-10
3.02923e-09
7.9147e-09
-6.30577e-09
2.60967e-08
-2.297e-08
5.15772e-08
-3.81025e-08
7.97216e-08
-4.71734e-08
1.07309e-07
-5.0558e-08
1.3274e-07
-5.01174e-08
1.55477e-07
-4.75009e-08
1.75491e-07
-4.37749e-08
1.92943e-07
-3.9546e-08
2.08043e-07
-3.51497e-08
2.21005e-07
-3.07767e-08
2.32026e-07
-2.65401e-08
2.41282e-07
-2.25129e-08
2.48938e-07
-1.87486e-08
2.55147e-07
-1.52812e-08
2.60046e-07
-1.2128e-08
2.63771e-07
-9.30734e-09
2.66452e-07
-6.83246e-09
2.68216e-07
-4.70965e-09
2.69184e-07
-2.94054e-09
2.69484e-07
-1.53055e-09
2.69197e-07
-4.32335e-10
2.68423e-07
3.50003e-10
2.67244e-07
8.2987e-10
2.65712e-07
1.06027e-09
2.63868e-07
1.0846e-09
2.61721e-07
9.69582e-10
2.59266e-07
7.78029e-10
2.56484e-07
5.66891e-10
2.53344e-07
3.84123e-10
2.49809e-07
2.69368e-10
2.45831e-07
2.60367e-10
2.4136e-07
3.94931e-10
2.36319e-07
7.15841e-10
2.30578e-07
1.26037e-09
2.23988e-07
2.06302e-09
2.16365e-07
3.14917e-09
2.07477e-07
4.5513e-09
1.97033e-07
6.31667e-09
1.84673e-07
8.50235e-09
1.69975e-07
1.11684e-08
1.52334e-07
1.44891e-08
1.31027e-07
1.8563e-08
1.05149e-07
2.35558e-08
7.3588e-08
2.97144e-08
3.50038e-08
3.74146e-08
-1.20375e-08
4.71153e-08
-6.9037e-08
5.86213e-08
-1.37136e-07
7.14748e-08
-2.16764e-07
8.58173e-08
-3.06229e-07
1.00679e-07
-4.0253e-07
1.15663e-07
-5.01699e-07
1.30515e-07
-5.9889e-07
1.44548e-07
-6.9058e-07
1.56685e-07
-7.74646e-07
1.65395e-07
-8.54202e-07
1.69384e-07
-9.34291e-07
1.67856e-07
-1.01426e-06
1.63059e-07
-1.09236e-06
1.56701e-07
-1.16775e-06
1.49563e-07
-1.23999e-06
1.42131e-07
-1.30888e-06
1.3467e-07
-1.37433e-06
1.27345e-07
-1.43637e-06
1.20251e-07
-1.49505e-06
1.1342e-07
-1.55045e-06
1.06871e-07
-1.60269e-06
1.00614e-07
-1.65186e-06
9.46534e-08
-1.69808e-06
8.89852e-08
-1.74149e-06
8.36042e-08
-1.78222e-06
7.85066e-08
-1.82041e-06
7.36947e-08
-1.85619e-06
6.91621e-08
-1.8897e-06
6.48971e-08
-1.92106e-06
6.08974e-08
-1.95041e-06
5.71586e-08
-1.97785e-06
5.36743e-08
-2.00352e-06
5.04362e-08
-2.02752e-06
4.74334e-08
-2.04995e-06
4.46522e-08
-2.07092e-06
4.20758e-08
-2.09051e-06
3.96849e-08
-2.1088e-06
3.74578e-08
-2.12585e-06
3.537e-08
-2.14171e-06
3.33963e-08
-2.15642e-06
3.15129e-08
-2.17e-06
2.96954e-08
-2.18248e-06
2.79188e-08
-2.19386e-06
2.61604e-08
-2.20413e-06
2.43996e-08
-2.21328e-06
2.26192e-08
-2.2213e-06
2.08059e-08
-2.22815e-06
1.89502e-08
-2.23381e-06
1.70467e-08
-2.23826e-06
1.50937e-08
-2.24147e-06
1.30934e-08
-2.24342e-06
1.1051e-08
-2.24409e-06
8.97515e-09
-2.24348e-06
6.87616e-09
-2.24158e-06
4.76988e-09
-2.23839e-06
2.67259e-09
-2.23392e-06
5.92727e-10
-2.2282e-06
-1.44749e-09
-2.22125e-06
-3.42816e-09
-2.21312e-06
-5.34683e-09
-2.20384e-06
-7.20409e-09
-2.19344e-06
-8.99991e-09
-2.18195e-06
-1.07389e-08
-2.16943e-06
-1.24317e-08
-2.15588e-06
-1.40961e-08
-2.14129e-06
-1.57522e-08
-2.12564e-06
-1.74185e-08
-2.10889e-06
-1.9119e-08
-2.09103e-06
-2.08837e-08
-2.072e-06
-2.27405e-08
-2.05175e-06
-2.47157e-08
-2.03021e-06
-2.68324e-08
-2.00733e-06
-2.91099e-08
-1.98301e-06
-3.15623e-08
-1.95719e-06
-3.4197e-08
-1.92979e-06
-3.7013e-08
-1.90075e-06
-4.00004e-08
-1.86999e-06
-4.31395e-08
-1.8375e-06
-4.64012e-08
-1.80324e-06
-4.97489e-08
-1.76721e-06
-5.31383e-08
-1.72945e-06
-5.65199e-08
-1.69001e-06
-5.98395e-08
-1.64897e-06
-6.30384e-08
-1.60644e-06
-6.60615e-08
-1.56255e-06
-6.88579e-08
-1.51746e-06
-7.13746e-08
-1.47136e-06
-7.35674e-08
-1.42442e-06
-7.5406e-08
-1.37685e-06
-7.68723e-08
-1.32884e-06
-7.79609e-08
-1.28059e-06
-7.86802e-08
-1.23228e-06
-7.90533e-08
-1.18405e-06
-7.91172e-08
-1.13603e-06
-7.89199e-08
-1.08834e-06
-7.85182e-08
-1.04103e-06
-7.79739e-08
-9.94152e-07
-7.73507e-08
-9.47698e-07
-7.67114e-08
-9.01646e-07
-7.61153e-08
-8.55945e-07
-7.56158e-08
-8.1052e-07
-7.52596e-08
-7.65279e-07
-7.50856e-08
-7.20114e-07
-7.51232e-08
-6.7491e-07
-7.53902e-08
-6.29551e-07
-7.58919e-08
-5.83922e-07
-7.66221e-08
-5.37922e-07
-7.75633e-08
-4.91461e-07
-7.86864e-08
-4.44473e-07
-7.99526e-08
-3.96913e-07
-8.1314e-08
-3.48766e-07
-8.27141e-08
-3.00049e-07
-8.40916e-08
-2.50806e-07
-8.53907e-08
-2.01114e-07
-8.65411e-08
-1.51081e-07
-8.74876e-08
-1.00806e-07
-8.82364e-08
-5.04488e-08
-8.86827e-08
-1.33306e-10
-8.88651e-08
5.00086e-08
-8.87844e-08
9.98498e-08
-8.84569e-08
1.49285e-07
-8.78982e-08
1.98213e-07
-8.7124e-08
2.46542e-07
-8.61429e-08
2.94213e-07
-8.49371e-08
3.41226e-07
-8.34458e-08
3.87521e-07
-8.1704e-08
4.32936e-07
-7.96155e-08
4.77204e-07
-7.70612e-08
5.19845e-07
-7.25605e-08
5.59304e-07
-6.79761e-08
5.95061e-07
-5.34082e-08
-2.60515e-08
6.18719e-07
4.4227e-09
-1.39347e-09
2.40856e-08
-2.59687e-08
5.34517e-08
-5.23361e-08
8.32095e-08
-6.78603e-08
1.0855e-07
-7.25138e-08
1.28748e-07
-7.0756e-08
1.44701e-07
-6.60705e-08
1.57485e-07
-6.02854e-08
1.67927e-07
-5.42159e-08
1.76577e-07
-4.81965e-08
1.83792e-07
-4.23649e-08
1.898e-07
-3.67849e-08
1.94751e-07
-3.14903e-08
1.98742e-07
-2.65042e-08
2.01843e-07
-2.18494e-08
2.04102e-07
-1.75404e-08
2.0556e-07
-1.35863e-08
2.06257e-07
-1.00039e-08
2.06231e-07
-6.80624e-09
2.05517e-07
-3.99588e-09
2.04143e-07
-1.56688e-09
2.02136e-07
4.76512e-10
1.99544e-07
2.16042e-09
1.96374e-07
3.51953e-09
1.92613e-07
4.59131e-09
1.88242e-07
5.43052e-09
1.83221e-07
6.10639e-09
1.77492e-07
6.69846e-09
1.70981e-07
7.2886e-09
1.63595e-07
7.95323e-09
1.5522e-07
8.75891e-09
1.45723e-07
9.7659e-09
1.34946e-07
1.1038e-08
1.22687e-07
1.2654e-08
1.08698e-07
1.47043e-08
9.26676e-08
1.7291e-08
7.42096e-08
2.05211e-08
5.28606e-08
2.44982e-08
2.80721e-08
2.93398e-08
-7.9565e-10
3.51844e-08
-3.44703e-08
4.2177e-08
-7.37836e-08
5.04817e-08
-1.19568e-07
6.0273e-08
-1.72681e-07
7.16768e-08
-2.33808e-07
8.46825e-08
-3.032e-07
9.91062e-08
-3.8046e-07
1.14675e-07
-4.64393e-07
1.31049e-07
-5.53176e-07
1.47404e-07
-6.44495e-07
1.62795e-07
-7.35679e-07
1.77001e-07
-8.24955e-07
1.89954e-07
-9.10917e-07
2.01625e-07
-9.92286e-07
2.11884e-07
-1.06827e-06
2.20533e-07
-1.13866e-06
2.27077e-07
-1.20395e-06
2.30683e-07
-1.26536e-06
2.30787e-07
-1.3251e-06
2.27604e-07
-1.384e-06
2.21956e-07
-1.44191e-06
2.14609e-07
-1.49854e-06
2.06189e-07
-1.55357e-06
1.97167e-07
-1.60677e-06
1.87871e-07
-1.65795e-06
1.78519e-07
-1.70695e-06
1.69258e-07
-1.75372e-06
1.60181e-07
-1.79819e-06
1.51349e-07
-1.84038e-06
1.42798e-07
-1.88028e-06
1.34552e-07
-1.91792e-06
1.26629e-07
-1.95336e-06
1.19039e-07
-1.98664e-06
1.11791e-07
-2.01784e-06
1.0489e-07
-2.04701e-06
9.83398e-08
-2.07426e-06
9.21408e-08
-2.09965e-06
8.62941e-08
-2.12329e-06
8.07981e-08
-2.14527e-06
7.56479e-08
-2.16567e-06
7.08345e-08
-2.18458e-06
6.63442e-08
-2.20208e-06
6.21585e-08
-2.21826e-06
5.8254e-08
-2.23318e-06
5.4603e-08
-2.24689e-06
5.11737e-08
-2.25946e-06
4.79318e-08
-2.2709e-06
4.48414e-08
-2.28125e-06
4.18662e-08
-2.29053e-06
3.89705e-08
-2.29873e-06
3.6119e-08
-2.30585e-06
3.32793e-08
-2.31187e-06
3.04224e-08
-2.31678e-06
2.75243e-08
-2.32054e-06
2.45664e-08
-2.32312e-06
2.15363e-08
-2.3245e-06
1.84276e-08
-2.32465e-06
1.52395e-08
-2.32353e-06
1.19767e-08
-2.32113e-06
8.64854e-09
-2.31742e-06
5.26893e-09
-2.3124e-06
1.85139e-09
-2.30606e-06
-1.57323e-09
-2.29842e-06
-4.96633e-09
-2.28949e-06
-8.33296e-09
-2.2793e-06
-1.16405e-08
-2.26786e-06
-1.48682e-08
-2.2552e-06
-1.80048e-08
-2.24136e-06
-2.10449e-08
-2.22637e-06
-2.39889e-08
-2.21026e-06
-2.68447e-08
-2.19307e-06
-2.96294e-08
-2.1748e-06
-3.23684e-08
-2.15545e-06
-3.50929e-08
-2.13504e-06
-3.78359e-08
-2.11352e-06
-4.06328e-08
-2.09088e-06
-4.35227e-08
-2.06708e-06
-4.65447e-08
-2.04206e-06
-4.97354e-08
-2.01577e-06
-5.31269e-08
-1.98813e-06
-5.67453e-08
-1.95908e-06
-6.06086e-08
-1.92856e-06
-6.4725e-08
-1.89648e-06
-6.90909e-08
-1.86279e-06
-7.36896e-08
-1.82744e-06
-7.84902e-08
-1.79039e-06
-8.3449e-08
-1.75163e-06
-8.85105e-08
-1.71116e-06
-9.36074e-08
-1.66901e-06
-9.8665e-08
-1.62525e-06
-1.03603e-07
-1.57995e-06
-1.08336e-07
-1.53323e-06
-1.1278e-07
-1.48523e-06
-1.1686e-07
-1.43611e-06
-1.20497e-07
-1.38605e-06
-1.23631e-07
-1.33524e-06
-1.26217e-07
-1.28388e-06
-1.28231e-07
-1.23217e-06
-1.29668e-07
-1.1803e-06
-1.30545e-07
-1.12846e-06
-1.30899e-07
-1.07679e-06
-1.30788e-07
-1.02542e-06
-1.30288e-07
-9.74454e-07
-1.29485e-07
-9.23956e-07
-1.28472e-07
-8.7396e-07
-1.27347e-07
-8.24468e-07
-1.26204e-07
-7.75452e-07
-1.25131e-07
-7.26858e-07
-1.24209e-07
-6.78611e-07
-1.23506e-07
-6.30617e-07
-1.2308e-07
-5.82767e-07
-1.22974e-07
-5.34944e-07
-1.23213e-07
-4.87031e-07
-1.23805e-07
-4.38914e-07
-1.2474e-07
-3.90487e-07
-1.2599e-07
-3.41662e-07
-1.27511e-07
-2.92368e-07
-1.29246e-07
-2.4256e-07
-1.31122e-07
-1.9222e-07
-1.33054e-07
-1.41362e-07
-1.34949e-07
-9.00265e-08
-1.36726e-07
-3.82883e-08
-1.38279e-07
1.37746e-08
-1.39551e-07
6.59666e-08
-1.40428e-07
1.18232e-07
-1.40948e-07
1.70415e-07
-1.41048e-07
2.22384e-07
-1.40753e-07
2.74026e-07
-1.40098e-07
3.25251e-07
-1.39123e-07
3.75994e-07
-1.37868e-07
4.26225e-07
-1.36374e-07
4.7595e-07
-1.34662e-07
5.25201e-07
-1.32696e-07
5.73945e-07
-1.30449e-07
6.22074e-07
-1.27744e-07
6.6934e-07
-1.24327e-07
7.15584e-07
-1.18804e-07
7.59549e-07
-1.11941e-07
8.01955e-07
-9.58139e-08
-6.42843e-08
8.40187e-07
1.00636e-08
-1.14571e-08
3.87698e-08
-5.46748e-08
6.89022e-08
-8.24685e-08
9.1135e-08
-9.00932e-08
1.05973e-07
-8.73521e-08
1.16265e-07
-8.10482e-08
1.24017e-07
-7.38216e-08
1.30234e-07
-6.65026e-08
1.35361e-07
-5.93433e-08
1.39594e-07
-5.24289e-08
1.43024e-07
-4.57953e-08
1.45701e-07
-3.94621e-08
1.47654e-07
-3.34435e-08
1.48903e-07
-2.77529e-08
1.49459e-07
-2.24051e-08
1.49328e-07
-1.74097e-08
1.48516e-07
-1.27746e-08
1.47025e-07
-8.5127e-09
1.44853e-07
-4.63387e-09
1.41998e-07
-1.14083e-09
1.38433e-07
1.99753e-09
1.34134e-07
4.77567e-09
1.29068e-07
7.22667e-09
1.2319e-07
9.39715e-09
1.16435e-07
1.13464e-08
1.08716e-07
1.31496e-08
9.99255e-08
1.4897e-08
8.99319e-08
1.66921e-08
7.85769e-08
1.86436e-08
6.56716e-08
2.08585e-08
5.09879e-08
2.34426e-08
3.42546e-08
2.64992e-08
1.51533e-08
3.01394e-08
-6.68596e-09
3.44932e-08
-3.16926e-08
3.97109e-08
-6.03595e-08
4.5958e-08
-9.32374e-08
5.3399e-08
-1.30909e-07
6.21701e-08
-1.73944e-07
7.23743e-08
-2.22845e-07
8.40852e-08
-2.77982e-07
9.73142e-08
-3.39475e-07
1.11975e-07
-4.07094e-07
1.27892e-07
-4.80246e-07
1.44829e-07
-5.57916e-07
1.62353e-07
-6.38577e-07
1.79768e-07
-7.20368e-07
1.96465e-07
-8.01401e-07
2.12082e-07
-8.80323e-07
2.26326e-07
-9.5641e-07
2.38881e-07
-1.0291e-06
2.49693e-07
-1.09798e-06
2.58836e-07
-1.16274e-06
2.66377e-07
-1.22322e-06
2.72365e-07
-1.27941e-06
2.76729e-07
-1.33156e-06
2.79227e-07
-1.38038e-06
2.79498e-07
-1.42688e-06
2.77294e-07
-1.47201e-06
2.72736e-07
-1.51629e-06
2.66233e-07
-1.55991e-06
2.58229e-07
-1.60286e-06
2.49138e-07
-1.64501e-06
2.39316e-07
-1.68619e-06
2.29047e-07
-1.72622e-06
2.18549e-07
-1.76494e-06
2.07979e-07
-1.80221e-06
1.97458e-07
-1.83794e-06
1.87073e-07
-1.87203e-06
1.76889e-07
-1.90443e-06
1.66955e-07
-1.93511e-06
1.57309e-07
-1.96405e-06
1.47982e-07
-1.99126e-06
1.39001e-07
-2.01676e-06
1.30388e-07
-2.04058e-06
1.2216e-07
-2.06277e-06
1.14331e-07
-2.08339e-06
1.06912e-07
-2.1025e-06
9.99104e-08
-2.12018e-06
9.33245e-08
-2.13649e-06
8.7148e-08
-2.15151e-06
8.13669e-08
-2.16532e-06
7.59596e-08
-2.17796e-06
7.08972e-08
-2.1895e-06
6.61445e-08
-2.19999e-06
6.16607e-08
-2.20946e-06
5.74013e-08
-2.21793e-06
5.33193e-08
-2.22544e-06
4.9367e-08
-2.23196e-06
4.54971e-08
-2.23751e-06
4.16644e-08
-2.24206e-06
3.78271e-08
-2.24558e-06
3.39482e-08
-2.24805e-06
2.99973e-08
-2.24944e-06
2.59515e-08
-2.2497e-06
2.17957e-08
-2.24879e-06
1.75232e-08
-2.24669e-06
1.3135e-08
-2.24335e-06
8.63952e-09
-2.23876e-06
4.05201e-09
-2.23287e-06
-6.15947e-10
-2.22571e-06
-5.30782e-09
-2.21726e-06
-1.00228e-08
-2.20752e-06
-1.47132e-08
-2.1965e-06
-1.93529e-08
-2.18422e-06
-2.39115e-08
-2.17073e-06
-2.83627e-08
-2.15605e-06
-3.26886e-08
-2.14021e-06
-3.68804e-08
-2.12326e-06
-4.09389e-08