/*--------------------------------*- C++ -*----------------------------------*\
| =========                 |                                                 |
| \\      /  F ield         | OpenFOAM: The Open Source CFD Toolbox           |
|  \\    /   O peration     | Version:  2312                                  |
|   \\  /    A nd           | Website:  www.openfoam.com                      |
|    \\/     M anipulation  |                                                 |
\*---------------------------------------------------------------------------*/
FoamFile
{
    version     2.0;
    format      ascii;
    arch        "LSB;label=32;scalar=64";
    class       volScalarField;
    location    "constant";
    object      Pkf;
}
// * * * * * * * * * * * * * * * * * * * * * * * * * * * * * * * * * * * * * //

dimensions      [0 0 0 0 0 0 0];

internalField   nonuniform List<scalar> 
12225
(
0.317557
0.203355
0.115477
0.110548
0.209864
0.195253
0.238737
0.223713
0.24865
0.240545
0.28083
0.251544
0.25123
0.276441
0.327331
0.379944
0.413921
0.481898
0.457588
0.310449
0.326752
0.199068
0.190615
0.14499
0.0451563
0.0232446
0.0171206
0.0252165
0.0238625
0.0215396
0.0439966
0.034371
0.0525263
0.12144
0.129224
0.270687
0.474139
0.478582
0.298819
0.308105
0.152592
0.176646
0.138079
0.0661018
0.0149546
0.0172644
0.0203783
0.0117499
0.0147926
0.0239686
0.0343792
0.0624057
0.101959
0.142826
0.728883
0.680961
0.559867
0.328423
0.321522
0.325857
0.193528
0.143877
0.163306
0.0801292
0.0918275
0.0679353
0.0903261
0.0569828
0.0709235
0.0133139
0.0255764
0.0210349
0.51798
0.576849
0.398117
0.408001
0.37015
0.321047
0.497215
0.384409
0.204844
0.081611
0.0205572
0.0110638
0.010382
0.0151383
0.042663
0.0392389
0.0717395
0.0587772
0.521256
0.575039
0.386194
0.292289
0.339814
0.330907
0.525792
0.669669
0.621014
0.22146
0.267994
0.490007
1.13596
1.44584
1.10455
0.947856
0.869363
0.751998
0.663763
0.398158
0.447649
0.288907
0.343263
0.466701
0.327867
0.770431
0.673762
0.170323
0.115646
0.0928521
0.15429
0.267472
0.470569
0.551747
0.618375
0.679713
0.8084
0.401803
0.569802
0.363468
0.346779
0.482622
0.517435
0.402307
0.445738
0.272368
0.155389
0.116996
0.0470518
0.0977531
0.16603
0.343543
0.564512
0.978784
0.775903
0.623186
0.53093
0.5195
0.399595
0.527396
0.470507
0.197749
0.194319
0.150708
0.11448
0.0996753
0.0780573
0.0513456
0.106074
0.212902
0.396088
0.706701
0.619365
0.407537
0.276844
0.517501
0.435293
0.516902
0.0993884
0.121645
0.109323
0.0549016
0.0407032
0.0451414
0.0763054
0.108089
0.164589
0.286454
0.453303
0.735477
0.529644
0.36264
0.289413
0.244075
0.301281
0.266428
0.068509
0.0230398
0.0219653
0.0180623
0.0298848
0.0600567
0.0837773
0.138807
0.198403
0.312699
0.45543
0.740185
0.824788
0.416753
0.300261
0.252343
0.304669
0.29193
0.0934253
0.02494
0.0177211
0.00543448
0.0125416
0.0239768
0.0501618
0.093552
0.148612
0.254738
0.381359
0.560861
0.813733
0.40712
0.251984
0.221663
0.0986318
0.0672392
0.0634052
0.0489982
0.0266702
0.0143532
0.0122039
0.0275313
0.0486415
0.0861559
0.12933
0.2361
0.358662
0.546739
0.68578
0.385957
0.276645
0.362369
0.0413423
0.0387968
0.0387875
0.017885
0.0320184
0.0335891
0.0382375
0.0666989
0.0828608
0.134764
0.164202
0.30299
0.418307
0.638387
0.646825
0.318339
0.434096
0.134214
0.0851959
0.0340379
0.0097384
0.0137415
0.0173208
0.0407573
0.0568549
0.119815
0.131198
0.186104
0.245942
0.357949
0.506074
0.680635
0.66912
0.366297
0.575031
0.128946
0.100312
0.0678742
0.00587841
0.0163985
0.0156841
0.0364005
0.0432498
0.0923602
0.131677
0.196017
0.259549
0.385992
0.547173
0.646154
0.78755
0.429445
0.489455
0.156198
0.122784
0.0979374
0.021122
0.015786
0.0184799
0.0304411
0.0450739
0.0768979
0.11447
0.178398
0.244953
0.332108
0.462089
0.535399
0.549306
0.392224
0.215719
0.173642
0.152384
0.0752535
0.0466779
0.0206661
0.0176717
0.0268632
0.0376061
0.0784554
0.110668
0.152105
0.198318
0.302915
0.414773
0.556556
0.771587
0.518877
0.349705
0.211621
0.132226
0.111939
0.0619519
0.0180701
0.0191593
0.00872166
0.0213521
0.0298218
0.0552704
0.0831096
0.178735
0.156994
0.165208
0.123059
0.585003
0.443118
0.337031
0.239623
0.129679
0.0780749
0.0101543
0.012858
0.00935429
0.0125306
0.0177012
0.0263967
0.0363785
0.0421775
0.0535507
0.0593223
0.0653518
0.0733514
0.792955
0.591336
0.301335
0.208957
0.105627
0.0376747
0.0281528
0.0279487
0.0180936
0.032508
0.0557265
0.0908079
0.117603
0.174244
0.255904
0.35706
0.501973
0.654675
0.653775
0.412836
0.295348
0.225236
0.176988
0.0643228
0.0366189
0.038456
0.0361288
0.0295989
0.0631242
0.128312
0.222456
0.417005
0.607794
0.909679
1.18892
1.27545
0.638279
0.364702
0.334613
0.294274
0.494295
0.371174
0.328472
0.0861881
0.139799
0.0888252
0.187862
0.364472
0.866481
1.06097
1.25546
1.51777
1.53627
1.50445
0.83812
0.598645
0.380371
0.278908
0.344439
0.287957
0.275704
0.359053
0.397995
0.389082
0.480092
0.743632
1.3012
1.52545
1.57733
1.58335
1.56426
1.5324
0.681193
0.585539
0.374435
0.284712
0.384915
0.306994
0.30711
0.398549
0.38384
0.456473
0.869612
1.17798
1.29883
1.29415
1.33579
1.20327
1.15529
1.09276
0.804116
0.628079
0.396123
0.287971
0.379618
0.305827
0.292711
0.359364
0.523904
0.662136
0.669767
0.598499
0.690595
0.711299
0.628713
0.585435
0.437027
0.439735
0.685703
0.65888
0.588635
0.380026
0.320422
0.428521
0.329974
0.423591
0.379846
0.17814
0.11769
0.0976858
0.129677
0.123259
0.0969482
0.0830723
0.0966971
0.106512
0.517268
0.62362
0.459534
0.471384
0.257493
0.273071
0.283068
0.109431
0.116421
0.129918
0.0969224
0.0631583
0.0629766
0.0495119
0.0669812
0.0490451
0.0435891
0.0305225
0.478966
0.428799
0.390596
0.316707
0.303177
0.155143
0.157683
0.164095
0.132472
0.0805234
0.0345709
0.0171702
0.0141214
0.0161316
0.0278835
0.00911135
0.00163204
0.00169002
0.301399
0.22829
0.280787
0.232279
0.175685
0.135259
0.211602
0.21567
0.276995
0.269926
0.240006
0.24345
0.249496
0.258248
0.256073
0.222113
0.213881
0.221481
0.336421
0.326812
0.331218
0.336629
0.376537
0.355606
0.390836
0.406917
0.388004
0.37234
0.339291
0.359042
0.39494
0.375089
0.381173
0.438434
0.424174
0.425828
0.417009
0.351712
0.345745
0.397579
0.462946
0.46378
0.455894
0.425965
0.379313
0.30583
0.314625
0.310243
0.31719
0.292593
0.317308
0.340971
0.342044
0.306026
0.308999
0.289398
0.28548
0.281559
0.278751
0.305092
0.307235
0.305276
0.303977
0.311234
0.451246
0.442752
0.290181
0.348668
0.29878
0.349034
0.437605
0.465724
0.274356
0.223797
0.422315
0.426097
0.469148
0.439729
0.409727
0.458593
0.474783
0.43988
0.48647
0.457095
0.50507
0.474502
0.545619
0.514074
0.552271
0.521298
0.569577
0.470329
0.488538
0.46898
0.456889
0.456066
0.426941
0.42919
0.415711
0.42221
0.407157
0.409551
0.413349
0.418643
0.41052
0.420633
0.419705
0.427584
0.421009
0.442151
0.436202
0.470548
0.539474
0.559837
0.580947
0.588701
0.570453
0.584328
0.581212
0.614869
0.601092
0.604946
0.596239
0.618402
0.599186
0.466464
0.466382
0.462637
0.472315
0.441155
0.449554
0.438929
0.430619
0.402798
0.406936
0.380753
0.345037
0.299443
0.298083
0.294509
0.307779
0.304778
0.327605
0.323995
0.32689
0.315823
0.329024
0.294201
0.313186
0.2857
0.303733
0.306428
0.378904
0.483063
0.470398
0.404135
0.39796
0.394673
0.394097
0.396568
0.407051
0.404708
0.409057
0.408938
0.41228
0.403294
0.405697
0.408325
0.412377
0.413465
0.324009
0.315315
0.320976
0.330415
0.290421
0.271538
0.264681
0.309222
0.321871
0.325513
0.337861
0.329794
0.318506
0.286718
0.266273
0.348711
0.262757
0.451528
0.332519
0.357862
0.360229
0.357808
0.383071
0.376779
0.393282
0.357729
0.402895
0.45732
0.262078
0.445769
0.493629
0.437974
0.474984
0.368344
0.394261
0.420514
0.49357
0.507812
0.525459
0.453371
0.429456
0.422284
0.383506
0.38247
0.382066
0.348993
0.272332
0.283473
0.270628
0.246142
0.27377
0.299509
0.290103
0.25738
0.232209
0.247363
0.300427
0.335175
0.356272
0.401974
0.382357
0.365884
0.347063
0.345924
0.342688
0.335998
0.336843
0.335424
0.335746
0.330948
0.344406
0.25021
0.488071
0.395682
0.399129
0.385636
0.419572
0.457302
0.546877
0.543183
0.541755
0.504343
0.473773
0.455413
0.462319
0.425488
0.439986
0.513442
0.580027
0.606802
0.611704
0.614315
0.628101
0.638687
0.638618
0.634987
0.63992
0.652061
0.654851
0.693899
0.647218
0.786471
0.814337
0.855663
0.871408
0.863655
0.893704
0.865467
0.896484
0.802316
0.789147
0.794897
0.804005
0.768781
0.772746
0.76184
0.779286
0.780202
0.793132
0.782673
0.781146
0.79918
0.671286
0.687489
0.684083
0.690693
0.688927
0.576933
0.490813
0.40314
0.632804
0.654064
0.625893
0.637318
0.648191
0.653074
0.680127
0.67542
0.688831
0.683728
0.670674
0.667288
0.671315
0.661168
0.662594
0.659276
0.674237
0.671553
0.680067
0.67569
0.674054
0.667506
0.673063
0.669372
0.67696
0.686345
0.694628
0.69476
0.704189
0.722626
0.739317
0.743903
0.736389
0.731221
0.725566
0.684137
0.633973
0.627616
0.592977
0.609417
0.631118
0.742365
0.677384
0.665211
0.598587
0.629065
0.663392
0.676978
0.710824
0.720673
0.739488
0.747894
0.750404
0.770576
0.810274
0.673132
0.70591
0.636584
0.611202
0.472325
0.311727
0.280108
0.354449
0.271149
0.261841
0.256268
0.276765
0.365862
0.389797
0.504231
0.518611
0.54583
0.545782
0.540027
0.553043
0.552203
0.586262
0.655023
0.325637
0.429271
0.443365
0.336879
0.315078
0.449556
0.525543
0.39428
0.428129
0.453239
0.429086
0.415578
0.399469
0.400129
0.38231
0.331784
0.305549
0.294251
0.3166
0.293134
0.428502
0.424892
0.393816
0.378337
0.338793
0.295652
0.358865
0.377366
0.390034
0.365428
0.338427
0.332093
0.340739
0.329878
0.272245
0.505594
0.474164
0.473217
0.513838
0.513091
0.543727
0.751316
0.719709
0.728423
0.747406
0.744631
0.622522
0.600914
0.609207
0.489334
0.418751
0.444117
0.488455
0.518179
0.610553
0.617186
0.603744
0.572487
0.602573
0.59759
0.61123
0.636382
0.656977
0.652214
0.555433
0.52572
0.521011
0.501185
0.511951
0.516093
0.532538
0.554792
0.590225
0.502028
0.444168
0.379209
0.359276
0.348444
0.350665
0.340069
0.342229
0.325763
0.349674
0.339536
0.362539
0.359648
0.359549
0.373842
0.386592
0.40362
0.386057
0.392041
0.388763
0.392834
0.384961
0.568288
0.395198
0.808006
0.672476
0.680297
0.749041
0.751787
0.755324
0.670783
0.674082
0.678348
0.667432
0.674045
0.659128
0.65645
0.658597
0.658164
0.660275
0.656514
0.659409
0.660236
0.668709
0.665895
0.687688
0.691223
0.708599
0.699799
0.700831
0.689595
0.695212
0.699378
0.696799
0.706036
0.721567
0.742123
0.742529
0.734209
0.726044
0.712631
0.711938
0.712202
0.738189
0.728544
0.72499
0.724848
0.748487
0.740464
0.758426
0.737969
0.762393
0.735797
0.751027
0.727473
0.733873
0.702278
0.76736
0.717839
0.780246
0.764455
0.802815
0.720269
0.786484
0.586932
0.49712
0.307137
0.355192
0.298681
0.28725
0.277198
0.256762
0.436883
0.501207
0.644355
0.666027
0.706872
0.732608
0.758727
0.78836
0.78305
0.781656
0.789276
0.771884
0.764016
0.836413
0.845187
0.412307
0.443766
0.367645
0.400887
0.510816
0.401053
0.443872
0.429831
0.471348
0.446771
0.451079
0.385826
0.378464
0.345134
0.347039
0.474146
0.468776
0.491816
0.488746
0.450174
0.467326
0.424718
0.415263
0.387722
0.33288
0.294539
0.310997
0.284217
0.372835
0.452821
0.538115
0.487414
0.481684
0.503201
0.568369
0.694069
0.683012
0.676401
0.668868
0.675924
0.548991
0.553005
0.534305
0.520984
0.497089
0.379912
0.431706
0.462806
0.502157
0.542906
0.549889
0.560922
0.615707
0.609133
0.620101
0.431047
0.401437
0.380741
0.402116
0.529641
0.384607
0.407841
0.402675
0.405561
0.35724
0.405695
0.4282
0.404518
0.427597
0.425198
0.510269
0.603225
0.563176
0.556883
0.467599
0.642973
0.843851
0.938156
0.810536
0.529048
0.562671
0.696409
0.72804
0.747696
0.71933
0.733563
0.728356
0.736712
0.726486
0.728587
0.707086
0.703633
0.689579
0.704504
0.70613
0.822989
0.703875
0.701048
0.682024
0.687358
0.654694
0.638143
0.643434
0.647216
0.653881
0.654787
0.647429
0.6392
0.622038
0.610111
0.611142
0.599068
0.603576
0.584276
0.596619
0.592985
0.606349
0.623991
0.636544
0.622999
0.647971
0.639869
0.661619
0.608158
0.609708
0.57847
0.597123
0.571609
0.597457
0.575744
0.593344
0.566061
0.602398
0.556454
0.585401
0.560186
0.611929
0.580816
0.620507
0.600824
0.634855
0.59285
0.608142
0.590355
0.616451
0.570203
0.613329
0.565928
0.680803
0.616374
0.689566
0.623857
0.657561
0.568492
0.635094
0.48373
0.445079
0.233979
0.220727
0.231939
0.181202
0.27845
0.348173
0.437622
0.472813
0.524251
0.544438
0.653151
0.86359
0.913065
1.0256
1.16281
1.09048
1.05501
1.00908
0.96728
1.01164
1.10666
1.0569
1.10347
0.34517
0.453061
0.42842
0.48178
0.49159
0.492412
0.522238
0.48218
0.428856
0.32793
0.422281
0.41854
0.530519
0.532262
0.523046
0.499216
0.486605
0.475658
0.413039
0.457361
0.473687
0.454791
0.517367
0.467951
0.478097
0.411204
0.422779
0.420802
0.404176
0.45906
0.4495
0.67383
0.655979
0.61927
0.511179
0.517807
0.521918
0.481636
0.451319
0.429563
0.362203
0.43424
0.464529
0.512037
0.533463
0.525021
0.566343
0.554078
0.506776
0.40981
0.40535
0.390774
0.395076
0.434908
0.411974
0.43369
0.419822
0.424543
0.408272
0.435524
0.327659
0.36716
0.337385
0.40346
0.485255
0.655353
0.719308
0.733399
0.615796
0.608475
0.600583
0.851028
0.768183
0.740984
0.710787
0.714989
0.762353
0.763167
0.735109
0.733644
0.72938
0.721003
0.723274
0.715937
0.72975
0.720421
0.750428
0.725485
0.740602
0.709993
0.745213
0.709102
0.723324
0.753939
0.790698
0.697835
0.715874
0.650104
0.701137
0.635927
0.684944
0.637024
0.68026
0.664841
0.682473
0.666939
0.666871
0.650099
0.635845
0.628854
0.615324
0.600725
0.615135
0.594248
0.601965
0.580553
0.597576
0.629332
0.662845
0.630046
0.661694
0.621488
0.654671
0.607799
0.653172
0.60723
0.656086
0.602557
0.640136
0.590226
0.61616
0.569823
0.617957
0.586716
0.629934
0.608779
0.645268
0.618357
0.650278
0.599562
0.632985
0.57669
0.609947
0.58589
0.624558
0.604234
0.694633
0.609261
0.710323
0.606206
0.658839
0.535666
0.632386
0.460892
0.458612
0.416583
0.302714
0.232906
0.320005
0.345273
0.387818
0.415246
0.397976
0.40747
0.562599
0.567962
0.712227
0.795771
0.818383
0.803225
0.841591
0.748695
1.21747
1.19107
1.22585
1.16871
1.18132
1.18808
1.16098
1.12646
0.417284
0.434303
0.490003
0.49869
0.470976
0.477401
0.487086
0.501927
0.440072
0.394008
0.571226
0.532499
0.568567
0.561464
0.389939
0.405805
0.471751
0.4853
0.394536
0.485758
0.54537
0.543272
0.52291
0.551858
0.347456
0.325455
0.412355
0.402206
0.414257
0.448315
0.433543
0.451396
0.434028
0.442373
0.3702
0.394615
0.447592
0.476098
0.517468
0.518604
0.519257
0.555566
0.572049
0.42781
0.395296
0.385345
0.396154
0.467245
0.391286
0.507807
0.407108
0.450033
0.399526
0.44636
0.351963
0.384308
0.370412
0.410794
0.543632
0.695493
0.571005
0.450384
0.788328
0.783379
0.799199
0.81705
0.806084
0.8248
0.809952
0.833111
0.822951
0.783695
0.767846
0.747825
0.747793
0.733863
0.726903
0.704537
0.672385
0.687942
0.705406
0.702485
0.710088
0.694613
0.731637
0.69903
0.727425
0.673428
0.706965
0.665229
0.746004
0.750428
0.781937
0.682338
0.708105
0.658131
0.695763
0.641344
0.694652
0.661622
0.693906
0.680593
0.693343
0.686354
0.68664
0.687756
0.675566
0.680665
0.658173
0.662171
0.640249
0.655059
0.632272
0.62826
0.633366
0.614784
0.637746
0.602263
0.63847
0.631327
0.647691
0.633002
0.647551
0.612459
0.649428
0.61672
0.651888
0.619284
0.653377
0.617191
0.667002
0.624428
0.695568
0.613771
0.676454
0.576987
0.639377
0.549261
0.613342
0.542647
0.610856
0.537786
0.616583
0.57491
0.670238
0.586352
0.69292
0.529345
0.638643
0.520925
0.611498
0.446319
0.294059
0.275517
0.345067
0.397305
0.469615
0.444393
0.454936
0.530371
0.530127
0.56834
0.578795
0.492233
0.513282
0.474192
0.502161
0.570638
0.570873
0.540238
0.563504
0.50005
0.726455
1.02727
1.229
1.2405
1.31751
1.33889
1.34245
1.2225
0.330654
0.408675
0.455001
0.397835
0.383747
0.391882
0.425754
0.397729
0.422979
0.472826
0.469455
0.477292
0.729737
0.488952
0.523538
0.437089
0.578725
0.544522
0.624524
0.608956
0.663618
0.674527
0.608762
0.409616
0.389112
0.355411
0.358552
0.425056
0.395856
0.395087
0.471216
0.49801
0.531571
0.521737
0.5355
0.556975
0.538268
0.540844
0.439907
0.394505
0.373534
0.37069
0.369399
0.441299
0.376226
0.50021
0.406485
0.448195
0.399706
0.446604
0.3364
0.344351
0.603369
0.557903
0.583549
0.565902
0.607075
0.671335
0.674818
0.691095
0.710713
0.689747
0.647388
0.670444
0.74893
0.762317
0.753894
0.774735
0.801783
0.796793
0.823102
0.74818
0.752151
0.718042
0.752962
0.690234
0.731118
0.681827
0.722008
0.686849
0.712158
0.70165
0.740602
0.73367
0.767179
0.72397
0.76124
0.710377
0.785059
0.77977
0.673853
0.677533
0.721211
0.703398
0.734269
0.688046
0.725698
0.686145
0.727437
0.716963
0.728039
0.728841
0.739678
0.722877
0.731554
0.709933
0.738897
0.697815
0.73482
0.703685
0.721447
0.701846
0.716031
0.698457
0.697534
0.665361
0.70215
0.66906
0.699258
0.661426
0.704237
0.673529
0.698255
0.661386
0.707788
0.649521
0.71129
0.637576
0.709149
0.636584
0.701182
0.630211
0.699006
0.636379
0.709052
0.619972
0.688241
0.597798
0.670152
0.569035
0.691425
0.576153
0.694857
0.553579
0.676384
0.483711
0.644883
0.511203
0.652388
0.33538
0.358392
0.356002
0.39396
0.38174
0.562832
0.555267
0.559744
0.470712
0.454074
0.42841
0.424599
0.40942
0.399809
0.368017
0.37569
0.367258
0.403534
0.363667
0.365851
0.377618
0.439439
0.451283
0.462125
0.566366
1.12323
1.13419
1.42414
1.64982
1.67719
1.57956
0.33066
0.395114
0.343048
0.347339
0.345536
0.387213
0.403555
0.387646
0.517345
0.45852
0.540367
0.4278
0.406102
0.454938
0.628789
0.596634
0.675903
0.638864
0.688363
0.637091
0.662226
0.640656
0.577262
0.395589
0.392653
0.404421
0.487285
0.456891
0.52706
0.53201
0.561409
0.544843
0.533877
0.5028
0.49024
0.514848
0.484209
0.470852
0.456937
0.426642
0.36319
0.406578
0.38426
0.315578
0.383556
0.380233
0.505637
0.507306
0.539504
0.578548
0.628323
0.585733
0.619489
0.633518
0.676388
0.727025
0.718376
0.733349
0.692588
0.721687
0.689887
0.743075
0.695162
0.717764
0.672408
0.700732
0.677551
0.700815
0.687541
0.673575
0.6627
0.617754
0.637076
0.658188
0.784341
0.74297
0.765382
0.743116
0.762869
0.75203
0.77932
0.728921
0.762229
0.730743
0.827547
0.797625
0.730061
0.711837
0.706262
0.711215
0.748931
0.718222
0.765444
0.717884
0.754496
0.713111
0.738884
0.721079
0.748263
0.723166
0.754799
0.727693
0.750524
0.728935
0.742912
0.726733
0.736326
0.722697
0.740621
0.717149
0.743315
0.719599
0.739118
0.716441
0.754386
0.713441
0.744965
0.715068
0.738066
0.719356
0.742997
0.72903
0.742388
0.722861
0.715211
0.666124
0.735109
0.657542
0.729329
0.657465
0.724623
0.629807
0.714595
0.618541
0.697358
0.608068
0.74505
0.642974
0.753142
0.654036
0.736591
0.580369
0.71018
0.543301
0.711389
0.396786
0.406021
0.38765
0.432549
0.466203
0.478732
0.462044
0.49701
0.404363
0.386209
0.317084
0.319592
0.286456
0.291898
0.295708
0.309248
0.30994
0.292707
0.274785
0.253692
0.244781
0.242156
0.214696
0.193999
0.202347
0.159652
0.34346
0.344282
0.427927
0.669974
0.997583
1.09641
1.01545
0.926151
0.911028
0.437776
0.451641
0.308002
0.320619
0.337332
0.376654
0.398584
0.383762
0.523118
0.451368
0.723613
1.03356
1.00554
1.01862
1.02545
0.903128
0.695772
0.623288
0.655273
0.60395
0.614368
0.559252
0.488594
0.435212
0.54028
0.527212
0.533874
0.505253
0.541906
0.511297
0.530439
0.490162
0.441386
0.443006
0.401369
0.455815
0.408883
0.396238
0.348536
0.384309
0.321393
0.363035
0.398038
0.548941
0.488375
0.489603
0.495611
0.59979
0.577157
0.565727
0.655012
0.705653
0.642834
0.725042
0.666595
0.716563
0.682752
0.738534
0.711812
0.755434
0.710383
0.755707
0.723279
0.769408
0.712303
0.735978
0.673491
0.706385
0.660187
0.693158
0.6564
0.730235
0.734519
0.746187
0.752702
0.754936
0.731246
0.743327
0.744501
0.735998
0.748877
0.729449
0.743267
0.734199
0.747209
0.736341
0.750249
0.717083
0.751788
0.720582
0.745096
0.730858
0.734934
0.719552
0.750347
0.733399
0.763415
0.729555
0.756776
0.738456
0.752801
0.737779
0.757324
0.728085
0.753183
0.724294
0.741282
0.729618
0.75069
0.744955
0.777636
0.766285
0.792003
0.770977
0.780153
0.758511
0.763245
0.76093
0.766173
0.727893
0.748219
0.716987
0.751544
0.703723
0.750099
0.704657
0.727511
0.637971
0.729812
0.642566
0.727465
0.682921
0.806297
0.691647
0.832328
0.693669
0.831905
0.612242
0.773738
0.553469
0.460277
0.450795
0.44903
0.424072
0.442412
0.406714
0.409544
0.397491
0.450786
0.406319
0.397514
0.310586
0.320746
0.26353
0.25444
0.228514
0.21917
0.204415
0.186702
0.193289
0.200277
0.193425
0.197077
0.19098
0.180117
0.177609
0.153863
0.167184
0.14019
0.149033
0.124888
0.240314
0.238348
0.341759
0.449126
0.491775
0.458418
0.339603
0.273024
0.273451
0.470945
0.516804
0.318899
0.310784
0.340966
0.354529
0.379148
0.373053
0.62456
0.993716
0.994973
1.0256
1.0302
1.05905
1.03017
1.08098
1.05817
1.09056
1.02898
1.03164
0.947406
0.566004
0.766747
0.650251
0.592431
0.49094
0.438543
0.434173
0.434631
0.439463
0.437828
0.443153
0.430454
0.453983
0.424644
0.425659
0.415287
0.392568
0.465504
0.541932
0.547138
0.502498
0.494536
0.502082
0.543409
0.583327
0.532425
0.581088
0.599797
0.689212
0.646608
0.729812
0.671384
0.725292
0.678322
0.732694
0.69295
0.755494
0.745711
0.785768
0.753236
0.78951
0.7601
0.782815
0.734501
0.78583
0.748655
0.798892
0.733642
0.774258
0.727757
0.834338
0.806487
0.860179
0.804177
0.846801
0.796989
0.830659
0.787052
0.825856
0.824272
0.804147
0.770532
0.776325
0.783193
0.766972
0.779287
0.746748
0.74414
0.770899
0.753226
0.735586
0.745449
0.734967
0.751421
0.736728
0.732918
0.726082
0.726071
0.72163
0.727403
0.721563
0.718028
0.715222
0.748225
0.723301
0.75163
0.742551
0.764048
0.754933
0.774571
0.752573
0.770391
0.745722
0.77033
0.73412
0.77669
0.739757
0.778831
0.728404
0.764633
0.696599
0.731694
0.697431
0.808581
0.751187
0.832158
0.763231
0.778703
0.694368
0.854907
0.651778
0.827853
0.610303
0.595421
0.660501
0.728663
0.724953
0.713785
0.73577
0.587911
0.426084
0.317608
0.220525
0.338253
0.333571
0.355941
0.311745
0.306904
0.241143
0.232953
0.175617
0.169712
0.135548
0.144347
0.145002
0.157538
0.152948
0.136641
0.130797
0.11775
0.113691
0.116553
0.114228
0.0946394
0.105454
0.080114
0.08711
0.0770126
0.0894008
0.068053
0.143269
0.139399
0.199895
0.215343
0.190948
0.117975
0.248695
0.285139
0.261684
0.391135
0.465566
0.34854
0.346469
0.329903
0.36275
0.49214
0.473948
0.942758
1.016
0.996989
1.03786
1.03297
1.02736
1.02822
1.03114
1.0146
1.04033
1.00188
0.494166
0.669047
0.705866
0.765741
0.57991
0.474898
0.428415
0.433404
0.426039
0.441374
0.445346
0.416431
0.454368
0.433975
0.446427
0.48933
0.46753
0.54102
0.571033
0.529485
0.512756
0.497587
0.512729
0.56482
0.559131
0.533891
0.564259
0.606854
0.717929
0.639834
0.742546
0.674897
0.78246
0.698693
0.799299
0.695572
0.796764
0.697686
0.788889
0.703907
0.781904
0.708549
0.811642
0.741205
0.791039
0.73877
0.823054
0.76734
0.856445
0.77675
0.838201
0.789046
0.890064
0.872995
0.915327
0.871685
0.87746
0.827859
0.854608
0.810357
0.835792
0.792041
0.810699
0.768552
0.794358
0.740004
0.749783
0.726758
0.735156
0.720111
0.740392
0.724179
0.718132
0.717918
0.715403
0.721098
0.717676
0.712607
0.706877
0.723296
0.724987
0.73426
0.720093
0.749232
0.715875
0.754573
0.714502
0.762908
0.724623
0.7763
0.717781
0.778003
0.72131
0.789851
0.727729
0.847715
0.779948
0.867163
0.78948
0.854638
0.790623
0.842069
0.788787
0.872508
0.822723
0.884039
0.771105
0.848672
0.906897
1.25962
1.25719
0.936613
0.961078
0.961786
0.986969
0.973193
0.975213
1.0275
1.0448
1.03093
1.09862
0.982681
0.829274
0.710703
0.604679
0.520541
0.434602
0.360114
0.284584
0.205659
0.13109
0.0748246
0.0562068
0.102432
0.117613
0.126127
0.110105
0.109587
0.10062
0.0986148
0.0979031
0.0971814
0.0856696
0.0872429
0.0884691
0.0692684
0.0673453
0.0635667
0.0682595
0.057226
0.0650073
0.0479164
0.0326515
0.0376415
0.0357306
0.0452893
0.121498
0.14295
0.23832
0.27149
0.280831
0.342064
0.361142
0.350119
0.321224
0.414036
0.440705
0.366461
0.582144
0.630138
0.59776
0.652525
0.441797
0.499184
0.502781
0.553551
0.485129
0.519023
0.648872
0.708173
0.662147
0.723876
0.677127
0.620541
0.521176
0.51716
0.499778
0.449054
0.469041
0.450873
0.453899
0.423397
0.437678
0.517558
0.447561
0.600768
0.545681
0.524197
0.510152
0.504271
0.537292
0.546883
0.5569
0.523781
0.561864
0.60234
0.734007
0.657086
0.763144
0.662714
0.757746
0.675658
0.766351
0.746578
0.785689
0.757398
0.796521
0.714821
0.812655
0.728859
0.832938
0.735282
0.791256
0.7521
0.802237
0.751035
0.801943
0.748899
0.8257
0.764472
0.807536
0.86665
0.871082
0.835008
0.86186
0.778537
0.81325
0.769457
0.799027
0.76517
0.778302
0.756297
0.776971
0.745578
0.762747
0.751982
0.771582
0.743699
0.748683
0.729546
0.752465
0.733358
0.738259
0.730719
0.715665
0.762451
0.705794
0.787913
0.710404
0.856487
0.765502
0.875548
0.768252
0.880673
0.771683
0.872705
0.774226
0.891277
0.814337
0.915712
0.825728
0.92647
0.864991
0.917875
0.847689
0.928352
0.805201
0.86656
0.803785
0.784237
1.24262
1.31681
1.28482
1.34218
1.32518
1.34243
1.36774
1.38472
1.43555
1.41233
1.48079
1.46968
1.52344
1.35118
1.50033
1.55383
1.61496
1.66278
1.65248
1.56008
1.41593
1.25678
1.07589
0.972348
0.896284
0.842486
0.796713
0.748558
0.698854
0.636254
0.58329
0.492061
0.413843
0.34806
0.25402
0.185097
0.122225
0.13454
0.11796
0.118028
0.107949
0.110731
0.0908329
0.0911364
0.0796123
0.0798977
0.0862083
0.0894065
0.0925109
0.0827359
0.0819449
0.0838877
0.0798815
0.0744784
0.0659788
0.116997
0.135754
0.246914
0.312767
0.352053
0.363617
0.350193
0.335773
0.455196
0.40232
0.307365
0.328926
0.371735
0.40049
0.421521
0.545033
0.602122
0.608209
0.675028
0.640549
0.703192
0.657666
0.696174
0.671566
0.655724
0.58373
0.49372
0.57135
0.555891
0.559629
0.539698
0.49909
0.469922
0.482702
0.419034
0.422216
0.48045
0.466092
0.616635
0.517558
0.541713
0.527833
0.537284
0.531355
0.53156
0.575916
0.566242
0.567054
0.698432
0.724096
0.614991
0.75241
0.654024
0.781747
0.66546
0.792982
0.694868
0.816454
0.704789
0.822314
0.712244
0.834315
0.72809
0.841966
0.73048
0.837407
0.739398
0.788606
0.719792
0.779746
0.712842
0.790979
0.73147
0.792528
0.717273
0.760665
0.841981
0.826506
0.836552
0.819152
0.892829
0.886497
0.965324
0.938782
0.964461
0.925509
0.956557
0.898251
0.933472
0.880846
0.942008
0.878287
0.934421
0.89683
0.941299
1.09767
0.851077
0.85605
0.890294
0.763687
0.887851
0.759368
0.881999
0.751783
0.881985
0.782394
0.827081
0.805618
0.798234
0.681643
0.744729
0.716692
0.724848
1.06587
1.16325
1.13539
1.19269
1.14514
1.30089
1.28285
1.36737
1.34728
1.43135
1.40469
1.45237
1.45488
1.47955
1.47298
1.52832
1.56632
1.58057
1.61132
1.64052
1.67823
1.7195
1.76131
1.77671
1.75491
1.74411
1.73027
1.67045
1.75008
1.76822
1.73078
1.64541
1.50429
1.38711
1.19987
1.12658
1.07121
1.03625
1.00721
0.968401
0.937367
0.875194
0.797766
0.688945
0.576766
0.468514
0.351725
0.232594
0.145453
0.0945619
0.121189
0.101429
0.0937503
0.0743877
0.0712498
0.0728094
0.0757094
0.0839174
0.0862397
0.0868379
0.0832453
0.0803706
0.0834689
0.0788678
0.0831418
0.112543
0.107623
0.163803
0.169288
0.333024
0.368136
0.40302
0.402729
0.414789
0.317901
0.544405
0.265739
0.261273
0.289667
0.41523
0.438882
0.487946
0.475425
0.524275
0.465045
0.434318
0.404001
0.500006
0.487629
0.490409
0.482563
0.486433
0.485345
0.530964
0.560479
0.545451
0.527371
0.504651
0.469995
0.33259
0.343181
0.32938
0.310099
0.418674
0.430948
0.443792
0.515141
0.533185
0.546338
0.551387
0.587552
0.577372
0.567752
0.54269
0.584914
0.607166
0.747703
0.636247
0.79259
0.68045
0.823073
0.726443
0.841755
0.740555
0.863838
0.742959
0.883443
0.765749
0.924327
0.769694
0.933887
0.815391
0.949575
0.802172
0.934383
0.824862
0.88388
0.841845
0.878848
0.831269
0.864132
0.822453
0.848326
0.678937
0.883777
0.983575
0.915084
0.995873
0.968387
0.981292
0.975087
0.982957
0.97798
0.994939
1.00866
0.996126
1.03556
1.01341
0.790955
0.894478
1.20998
0.900352
0.67313
0.870638
0.99805
1.03847
1.12563
1.1586
1.08886
1.14985
1.11715
1.17622
1.1738
1.20864
1.20121
1.23223
1.2367
1.27904
1.30637
1.3138
1.34979
1.35168
1.36142
1.41908
1.50674
1.58711
1.58244
1.65897
1.64301
1.70582
1.70724
1.74855
1.74984
1.78039
1.77285
1.80588
1.78217
1.73379
1.70465
1.72283
1.72534
1.76077
1.7909
1.81015
1.79456
1.77921
1.7649
1.72843
1.7399
1.72513
1.68306
1.58376
1.47868
1.34194
1.24599
1.18306
1.14264
1.11656
1.09475
1.06141
1.01628
0.954762
0.87381
0.754371
0.594932
0.468236
0.379178
0.251323
0.171283
0.0943853
0.0500943
0.0626272
0.0620445
0.0659404
0.0748362
0.0694759
0.0732451
0.0697571
0.0735744
0.0757995
0.0757722
0.0786828
0.0792495
0.0843038
0.0832544
0.0967186
0.106118
0.201152
0.220788
0.318037
0.384665
0.434774
0.41698
0.41629
0.293985
0.366989
0.223995
0.220863
0.275652
0.393195
0.393114
0.457348
0.453343
0.500183
0.483358
0.532722
0.539972
0.549593
0.481698
0.4707
0.524508
0.554697
0.544766
0.497376
0.520508
0.482098
0.459445
0.328247
0.361347
0.295219
0.27564
0.363278
0.435377
0.438436
0.500568
0.550632
0.544641
0.532896
0.533736
0.570039
0.567484
0.553712
0.554011
0.579638
0.702184
0.626752
0.746888
0.683578
0.823433
0.715441
0.893955
0.766868
0.966693
0.807459
0.985784
0.814145
0.998108
0.840006
1.01691
0.868461
1.05279
0.892918
1.08104
0.893937
1.08552
0.906489
1.07301
0.876634
0.9738
0.835745
0.778083
1.09223
1.13657
1.11305
1.07884
1.11891
1.1028
1.15235
1.1091
1.15832
1.11405
1.14459
1.10793
1.1577
1.13553
1.16705
1.15781
1.17545
1.18818
1.20292
0.607389
0.575016
1.1615
1.23527
1.18591
1.25573
1.20973
1.30814
1.25483
1.31791
1.24284
1.28692
1.27108
1.31436
1.24698
1.29479
1.25277
1.29211
1.27969
1.34332
1.37299
1.50164
1.59091
1.71225
1.69184
1.75372
1.70977
1.78553
1.74488
1.83308
1.82651
1.8673
1.79104
1.75487
1.76301
1.75059
1.74396
1.70197
1.66183
1.64289
1.64568
1.67291
1.69868
1.71408
1.70893
1.69526
1.71961
1.7049
1.68079
1.65131
1.60972
1.42723
1.41469
1.33127
1.26314
1.20167
1.14601
1.10561
1.07704
1.03146
0.978015
0.931764
0.857162
0.738169
0.596745
0.429457
0.307637
0.20379
0.162759
0.0972277
0.106571
0.0865524
0.087903
0.0730925
0.0728683
0.0721777
0.0779242
0.0715444
0.0881418
0.0841212
0.0915603
0.0876048
0.0905427
0.0939729
0.0966804
0.106902
0.146214
0.184634
0.220096
0.355829
0.373042
0.469997
0.427569
0.441185
0.35667
0.249729
0.216041
0.28037
0.332283
0.351391
0.422722
0.458488
0.465849
0.503394
0.498435
0.536953
0.536837
0.502199
0.478872
0.499713
0.479839
0.457975
0.470658
0.433204
0.435417
0.330352
0.380215
0.302453
0.264987
0.344937
0.392602
0.39674
0.493273
0.536737
0.547023
0.604788
0.611184
0.632308