/*--------------------------------*- C++ -*----------------------------------*\
| =========                 |                                                 |
| \\      /  F ield         | OpenFOAM: The Open Source CFD Toolbox           |
|  \\    /   O peration     | Version:  2312                                  |
|   \\  /    A nd           | Website:  www.openfoam.com                      |
|    \\/     M anipulation  |                                                 |
\*---------------------------------------------------------------------------*/
FoamFile
{
    version     2.0;
    format      ascii;
    arch        "LSB;label=32;scalar=64";
    class       volScalarField;
    location    "constant";
    object      Pwf;
}
// * * * * * * * * * * * * * * * * * * * * * * * * * * * * * * * * * * * * * //

dimensions      [0 0 0 0 0 0 0];

internalField   nonuniform List<scalar> 
12225
(
0.551084
0.709453
1.23897
1.50545
0.838304
0.658304
0.764876
0.69134
0.836163
0.799131
0.829641
0.847347
0.747504
0.635975
0.584396
0.827258
0.893964
0.807549
0.539392
0.655669
0.62448
0.615796
0.445647
0.336861
0.14031
0.129748
0.161329
0.214359
0.264355
0.319786
0.360384
0.411838
0.48297
0.525314
0.615631
0.652692
0.489571
0.564024
0.606568
0.561431
0.23095
0.286148
0.19516
0.135713
0.0384315
0.0230304
0.0315496
0.0243803
0.029431
0.0380013
0.0495755
0.0737912
0.142885
0.141735
0.585379
0.589032
0.679592
0.517253
0.404272
0.382616
0.253346
0.191333
0.173161
0.0903479
0.0895056
0.0886807
0.0917219
0.0630079
0.0820079
0.0123255
0.0224861
0.0214295
0.542254
0.393727
0.4568
0.426977
0.498922
0.469491
0.619179
0.41082
0.188306
0.0902958
0.0128519
0.00937143
0.00783197
0.0113271
0.0181583
0.0271221
0.0391644
0.0191291
0.484397
0.351481
0.432272
0.360706
0.365343
0.284464
0.286387
0.600463
0.580026
0.119517
0.101955
0.174209
0.257767
0.299932
0.341682
0.435343
0.474819
0.506159
0.653214
0.271012
0.438218
0.357554
0.37144
0.364302
0.191875
0.238651
0.220243
0.0692651
0.0511622
0.0356138
0.0571544
0.112874
0.153611
0.325974
0.406098
0.618298
0.602395
0.28628
0.384487
0.393273
0.338967
0.401436
0.346445
0.163817
0.185178
0.121387
0.0720346
0.0546168
0.0198502
0.0323444
0.045418
0.0865352
0.144966
0.216305
0.674162
0.628813
0.377216
0.409839
0.412397
0.349981
0.291526
0.103234
0.106674
0.0794705
0.0761162
0.0627207
0.0448566
0.0242044
0.0454933
0.0619165
0.108501
0.174094
0.647286
0.267995
0.247436
0.420925
0.378218
0.375068
0.102455
0.0780721
0.0686065
0.0375341
0.0262154
0.0289623
0.0507554
0.0636142
0.0856523
0.129863
0.185813
0.261789
0.584809
0.282597
0.23437
0.281592
0.317252
0.244282
0.0645483
0.0278275
0.0299129
0.029113
0.0386148
0.0492432
0.0771047
0.111082
0.139691
0.1889
0.241022
0.331684
0.629439
0.37363
0.267071
0.268204
0.310156
0.263221
0.0794232
0.0289728
0.0214178
0.0107709
0.0148898
0.0202024
0.033918
0.055463
0.0820797
0.126499
0.176589
0.225203
0.628485
0.448298
0.287057
0.310713
0.150106
0.0685112
0.0582956
0.0504057
0.0295913
0.0198097
0.015885
0.0232124
0.0313296
0.0491242
0.0654676
0.113482
0.155306
0.211598
0.776574
0.43517
0.384313
0.400988
0.091737
0.0509598
0.0573928
0.0328215
0.0466735
0.0446064
0.0477132
0.069967
0.0771258
0.106412
0.110382
0.191431
0.236787
0.32276
0.809696
0.449755
0.461059
0.193625
0.105084
0.0451695
0.0348572
0.0354243
0.0453202
0.062358
0.0791052
0.116763
0.130675
0.165525
0.200013
0.253713
0.321331
0.390788
0.801365
0.537872
0.491825
0.175651
0.113419
0.0845784
0.0303123
0.0381726
0.0393544
0.0570047
0.0681038
0.10296
0.132826
0.173642
0.216939
0.281384
0.353532
0.394312
0.610906
0.675271
0.508173
0.262383
0.168432
0.114525
0.046005
0.042604
0.0499473
0.0652007
0.0845607
0.111906
0.138222
0.185123
0.226214
0.276627
0.351986
0.435948
0.888816
0.72792
0.538329
0.459233
0.369849
0.141141
0.104155
0.0834177
0.0826294
0.106929
0.124757
0.189168
0.225636
0.284757
0.320986
0.421067
0.52054
0.637928
0.66283
0.829629
0.449626
0.291138
0.18744
0.14242
0.100515
0.073405
0.0972557
0.11259
0.145849
0.188907
0.244479
0.304985
0.346383
0.461861
0.546942
0.651176
0.84414
0.628983
0.45058
0.243429
0.122983
0.0978209
0.0529055
0.0565394
0.0695823
0.0819467
0.110278
0.151986
0.193431
0.231684
0.28842
0.372593
0.431303
0.513589
0.620306
0.660276
0.451056
0.29159
0.161773
0.0751192
0.0797643
0.084476
0.0731476
0.0767333
0.101347
0.141912
0.182777
0.230908
0.288138
0.363099
0.427793
0.511488
0.769552
0.457287
0.410481
0.351737
0.197671
0.101694
0.0975065
0.0751447
0.0612188
0.0425503
0.0688964
0.116272
0.169208
0.271344
0.363172
0.489969
0.568799
0.648148
0.782374
0.408762
0.313928
0.293904
0.392998
0.346254
0.323846
0.130654
0.123415
0.0819286
0.128647
0.213823
0.405626
0.465381
0.508435
0.574737
0.589237
0.603559
0.643091
0.682038
0.262907
0.221575
0.300761
0.320815
0.31246
0.31848
0.335543
0.297614
0.288195
0.339781
0.475371
0.52512
0.536908
0.547848
0.543203
0.562756
0.713249
0.581293
0.244818
0.186456
0.334845
0.344956
0.330057
0.346055
0.317001
0.313026
0.306242
0.327654
0.36867
0.432496
0.486564
0.523392
0.537076
0.561083
0.662309
0.449308
0.274466
0.176982
0.343538
0.365869
0.340817
0.35904
0.509656
0.564978
0.707954
0.620747
0.524867
0.493727
0.452842
0.431367
0.422848
0.450746
0.73696
0.70935
0.50248
0.179439
0.357847
0.480428
0.470951
0.421118
0.379359
0.185223
0.125706
0.0978531
0.109032
0.106541
0.0914575
0.0603687
0.075218
0.139962
0.573971
0.846559
0.597217
0.56989
0.555863
0.543993
0.470195
0.139899
0.181209
0.144133
0.123266
0.0591993
0.0512496
0.0762025
0.0797854
0.0663461
0.0607032
0.0344547
0.494626
0.56791
0.649944
0.569891
0.55716
0.424921
0.406803
0.335391
0.197484
0.163469
0.113038
0.0838143
0.0985323
0.116085
0.153516
0.140439
0.155179
0.176706
0.547454
0.518059
0.597727
0.68783
1.13746
1.34479
0.882541
0.728076
0.643876
0.776134
0.74076
0.720944
0.821721
0.872194
0.829582
0.840326
0.823918
0.839495
0.927486
0.927104
0.852291
0.975624
0.966814
0.843798
0.948643
0.932641
0.939651
0.914285
0.940116
0.923157
0.952988
0.909912
0.952742
0.899246
0.896238
0.890607
0.889586
0.947178
0.960906
1.01919
0.937027
0.911333
0.867284
0.800354
0.743786
0.773786
0.884215
0.875441
0.888388
1.06017
1.14
0.988661
0.989231
0.971303
0.974483
0.953519
0.969423
0.971919
0.968484
0.8625
0.867347
0.839575
0.870611
0.832473
0.866164
0.846616
0.788072
0.906116
0.909975
0.994838
0.863444
0.892509
1.11264
1.05342
0.99192
0.964088
1.00942
1.00529
0.998188
0.926619
0.963193
0.904853
0.95754
0.884256
0.979092
0.899807
0.94921
0.908444
0.953847
0.965801
0.935433
0.947345
0.953616
0.952138
0.955995
0.955783
0.955678
0.944192
0.937862
0.935639
0.921178
0.922248
0.908072
0.915014
0.905646
0.907901
0.90042
0.909257
0.900712
0.901005
0.89967
0.889032
0.870007
0.881129
0.855077
0.852814
0.842138
0.849895
0.84083
0.846443
0.841985
0.847423
0.847731
0.849695
0.784361
0.669245
0.681072
0.683431
0.675753
0.692149
0.71649
0.721888
0.724861
0.7361
0.725978
0.747006
0.759921
0.792763
0.793009
0.796898
0.806267
0.798247
0.809952
0.810466
0.799541
0.799675
0.824335
0.695233
0.725814
0.692463
0.729657
0.686169
0.731477
0.781645
0.777857
0.812122
0.825419
0.825263
0.826582
0.832695
0.843634
0.868549
0.860203
0.874533
0.869564
0.86286
0.861268
0.87365
0.881462
0.884235
0.899146
0.895352
0.902009
0.907939
0.892197
0.898617
0.921692
0.915606
0.939542
0.943788
0.955546
0.952048
0.940273
0.919294
0.935271
0.970925
0.861638
0.850939
0.780651
0.798207
0.731359
0.709601
0.763408
0.7295
0.758543
0.754321
0.87381
0.894878
0.887236
0.999016
0.930305
0.97175
1.02691
0.930317
0.914078
0.835298
0.826333
0.83647
0.867072
0.858039
0.898219
0.914987
0.94905
0.940286
0.920658
0.85837
0.745484
0.758401
0.736865
0.91175
0.939668
0.947707
0.900029
0.954562
0.991661
0.997921
1.01017
1.00926
1.01485
0.791572
0.812991
0.796383
0.771309
0.843996
0.967822
0.946653
0.966479
0.94482
0.956034
0.950919
0.946461
0.842619
0.905848
0.900223
0.94422
0.979226
0.980026
0.984081
0.98165
0.996293
1.0264
1.04245
1.0259
0.9791
0.976591
0.985101
0.982221
0.988363
0.971089
0.962608
0.958835
0.951632
0.929377
0.92278
0.930559
0.926909
0.907159
0.913159
0.938624
0.927447
0.848735
0.82042
0.808091
0.858954
0.881636
0.871786
0.918698
0.883589
0.939506
0.933426
0.960838
0.922064
0.927509
0.904266
0.906086
0.90542
0.896205
0.90186
0.906358
0.90269
0.909828
0.901288
0.872712
0.882251
0.896622
0.897369
0.872343
0.661212
0.45755
0.4338
0.693375
0.716281
0.703654
0.687879
0.695678
0.701991
0.723429
0.710856
0.723647
0.715976
0.707604
0.700109
0.706669
0.706849
0.718936
0.721527
0.732329
0.737227
0.737731
0.73878
0.736054
0.747752
0.764166
0.762258
0.774819
0.795161
0.804176
0.804395
0.810719
0.812274
0.824408
0.833514
0.884574
0.901808
0.88849
0.829211
0.834636
0.844537
0.846066
0.705045
0.721949
0.781324
0.760219
0.758342
0.863126
0.862145
0.857118
0.871846
0.881155
0.929862
0.999
0.983819
1.01165
1.00887
0.983634
0.913235
0.970037
0.915475
0.972891
1.04733
0.863942
0.866779
0.768443
0.768968
0.766345
0.748313
0.747013
0.735056
0.728389
0.765455
0.764841
0.782588
0.81711
0.809581
0.856159
0.850401
0.81957
1.03396
0.932793
0.979488
0.99907
0.959107
0.741604
0.949592
0.988942
0.924377
0.921254
0.879474
0.961906
0.944909
0.936726
0.9172
0.877778
0.780834
0.764902
0.719983
0.706609
0.690743
0.858411
0.878852
1.00224
1.01958
1.17638
1.17648
1.09071
0.998228
1.06944
1.008
0.956706
0.910158
0.914938
0.934202
0.864215
0.929413
0.912543
0.926984
0.968347
0.945082
0.971049
0.850733
0.977726
0.891856
1.00006
0.861829
1.04752
0.936639
1.08607
0.978982
0.95945
0.911712
0.953042
0.900364
0.932348
0.954976
0.928067
0.899883
0.912266
0.924981
0.919368
0.862666
0.874578
0.857616
0.678946
0.637186
0.667301
0.633059
0.650818
0.647607
0.64997
0.620237
0.532168
0.423788
0.379018
0.33305
0.31816
0.328842
0.305813
0.305749
0.278604
0.279365
0.239522
0.245916
0.249938
0.273383
0.258332
0.28556
0.279691
0.307641
0.309456
0.334753
0.333839
0.362358
0.409095
0.614482
0.70745
0.77022
0.895379
0.848396
0.689239
0.664616
0.64014
0.750212
0.770364
0.787007
0.786359
0.800948
0.80907
0.825366
0.827478
0.836911
0.846758
0.858353
0.867443
0.870905
0.881319
0.886014
0.911859
0.910469
0.93787
0.920945
0.912932
0.906139
0.890265
0.877246
0.88055
0.864659
0.859041
0.868207
0.859385
0.859864
0.829739
0.832383
0.821402
0.829278
0.850378
0.843686
0.858739
0.878261
0.915705
0.922809
0.906725
0.884702
0.876493
0.876419
0.892408
0.896357
0.917409
0.979556
1.01778
1.01787
1.0477
1.04072
1.05649
1.08043
1.10802
0.965542
1.05598
0.877865
0.850226
0.810278
0.761458
0.734533
0.648257
0.784184
0.851812
0.99137
0.963273
0.9795
1.01119
1.01576
1.04033
1.04072
1.04198
1.03415
0.978387
0.949078
1.03274
0.99139
0.940463
0.956012
0.930765
0.837851
0.922066
0.992026
1.00139
1.0226
0.915323
0.958439
0.93721
0.810337
0.80301
0.776883
0.763626
0.859195
0.799401
0.78637
0.803331
0.834163
0.858561
0.859169
1.03795
1.00695
1.1998
1.13222
1.16677
0.973092
1.04942
0.92777
0.847997
0.917213
0.956411
0.923572
0.905419
0.82503
0.914563
0.852561
0.949075
0.867199
1.05281
0.943861
1.06945
0.930679
1.06691
0.838425
0.89887
0.854768
0.869635
0.903547
0.905537
0.917264
0.930579
0.903098
0.881428
0.588604
0.581924
0.574646
0.582263
0.703217
0.551333
0.625107
0.594414
0.607996
0.556604
0.589455
0.578229
0.630489
0.648017
0.59223
0.608079
0.53919
0.45047
0.377929
0.31869
0.415781
0.553448
0.505791
0.503591
0.402563
0.418168
0.604751
0.619874
0.615658
0.605072
0.59364
0.598064
0.592974
0.612234
0.594849
0.581234
0.570969
0.566465
0.573174
0.586944
0.705172
0.625751
0.6166
0.605788
0.620608
0.61064
0.621757
0.613278
0.617305
0.607977
0.588618
0.595304
0.584059
0.566393
0.530091
0.527148
0.510445
0.515488
0.684567
0.701921
0.724152
0.741436
0.776071
0.78874
0.783197
0.804269
0.808172
0.821012
0.782543
0.773499
0.743892
0.761586
0.743097
0.766376
0.748671
0.767962
0.74102
0.775757
0.7342
0.769929
0.739176
0.785343
0.803168
0.838505
0.824081
0.832709
0.788395
0.782309
0.770074
0.816476
0.781268
0.870789
0.858327
0.932336
0.87692
0.974968
0.937009
0.983806
0.941571
0.990302
0.827307
0.884389
0.643203
0.572571
0.552597
0.421476
0.516801
0.543969
0.675195
0.716807
0.794009
0.805281
0.935354
1.14615
1.23538
1.30008
1.47797
1.32118
1.23183
1.08648
1.01995
0.957974
0.93211
0.950338
0.930015
0.783379
0.978123
0.875355
0.963738
0.968663
0.985972
1.07906
1.10178
0.973288
0.845229
0.753443
0.726294
0.811402
0.821989
0.844467
0.837125
0.836835
0.836206
0.849829
0.815074
0.799467
0.777691
0.85832
0.871592
0.842247
0.940515
0.936226
0.910204
0.933571
0.896231
0.971915
0.847473
0.95019
0.869666
1.08255
0.997609
1.10725
0.965006
1.06941
1.01037
0.912641
0.848671
0.88991
0.85596
0.869564
0.8942
0.907848
0.892761
0.753815
0.612326
0.600911
0.581637
0.547598
0.632569
0.573885
0.67461
0.626171
0.681439
0.597017
0.621142
0.432064
0.418964
0.356215
0.389691
0.457287
0.578842
0.632678
0.616667
0.584749
0.575094
0.528327
0.580597
0.721686
0.635169
0.660163
0.616863
0.658033
0.641055
0.649681
0.629694
0.623776
0.617847
0.610333
0.602853
0.606367
0.605546
0.605495
0.605107
0.602513
0.592635
0.585065
0.598923
0.604802
0.639435
0.651314
0.659337
0.647593
0.694162
0.652756
0.699996
0.646429
0.684809
0.633307
0.658432
0.62514
0.653985
0.619318
0.642699
0.598454
0.627646
0.580827
0.587721
0.546114
0.592373
0.537928
0.580572
0.542875
0.774402
0.773299
0.782591
0.813376
0.788884
0.818117
0.787064
0.812315
0.784424
0.82194
0.7831
0.797403
0.774298
0.789295
0.749904
0.778738
0.7693
0.836146
0.824417
0.859861
0.838359
0.868782
0.81334
0.855044
0.796584
0.839761
0.835252
0.894186
0.875484
0.952611
0.888788
0.989046
0.947658
1.01444
0.964121
0.995692
0.804027
0.858482
0.845922
0.660651
0.461866
0.505443
0.602874
0.636085
0.691852
0.677486
0.725468
0.876108
0.881674
0.974195
1.02793
0.985541
0.970804
0.898909
0.894253
0.927512
0.915863
0.899771
0.875753
0.917574
0.914173
0.95401
0.952303
1.00677
0.93273
0.91404
0.939094
0.952861
0.994583
1.01928
1.00366
0.910125
0.858992
0.863099
0.835418
0.848738
0.779886
0.775779
0.854209
0.685577
0.694505
0.840047
0.784158
0.804587
0.789256
0.81326
0.806716
0.905474
0.875833
0.920341
0.910717
0.969053
0.949121
1.04856
0.988957
1.07789
1.04587
1.00375
0.81398
0.925194
0.86748
0.899082
0.856701
0.881776
0.892852
0.896057
0.610381
0.589501
0.56144
0.569552
0.618489
0.543721
0.665695
0.594043
0.646768
0.57422
0.600417
0.399361
0.373295
0.349902
0.388885
0.562257
0.577205
0.550719
0.455987
0.622748
0.659757
0.735059
0.68618
0.72647
0.672315
0.703672
0.642897
0.699741
0.629992
0.668965
0.628313
0.667994
0.662369
0.670368
0.662612
0.661114
0.621939
0.623644
0.617626
0.611811
0.639617
0.610399
0.631523
0.616604
0.626772
0.607998
0.630592
0.634068
0.681397
0.676365
0.65739
0.646195
0.662269
0.643957
0.669479
0.642302
0.656817
0.635331
0.651526
0.630224
0.648811
0.609833
0.635868
0.596794
0.625128
0.603145
0.622579
0.581778
0.607656
0.55024
0.566197
0.518996
0.563614
0.521416
0.561597
0.510786
0.780744
0.808116
0.801949
0.815957
0.796672
0.839566
0.807637
0.852032
0.827126
0.885937
0.874708
0.922286
0.873114
0.960226
0.866976
0.93726
0.817236
0.889843
0.786776
0.84788
0.782235
0.851613
0.797186
0.903889
0.848411
0.941436
0.898941
1.00865
0.892211
0.980495
0.896644
0.965291
0.78663
0.425801
0.4845
0.531346
0.642254
0.731464
0.758043
0.759646
0.95004
0.937727
1.00152
0.992323
0.895789
0.870414
0.824114
0.787224
0.785825
0.71696
0.645006
0.642059
0.595645
0.619631
0.670193
0.727425
0.743697
0.82525
0.831086
0.900199
0.92041
1.02368
0.878533
0.931981
0.965411
0.972198
1.00076
0.988192
0.862076
0.847386
0.837157
0.842482
0.794273
0.90712
0.793451
0.87354
0.90151
0.810091
0.801317
0.817717
0.823722
0.85123
0.800872
0.824194
0.880868
0.939669
0.898747
0.96543
0.995452
1.05999
0.839896
0.942873
0.876866
0.91443
0.865156
0.891076
0.864038
0.879116
0.809513
0.677299
0.579688
0.588038
0.552827
0.566169
0.593422
0.513035
0.655976
0.588125
0.622728
0.575804
0.584754
0.375016
0.371284
0.735083
0.795851
0.817471
0.748231
0.716563
0.513901
0.502872
0.487601
0.510658
0.493715
0.504122
0.497091
0.579452
0.571369
0.602565
0.579471
0.65
0.594844
0.672933
0.620905
0.648276
0.615128
0.646204
0.638038
0.667953
0.664576
0.665171
0.623181
0.633136
0.623944
0.621219
0.632915
0.620512
0.636201
0.632807
0.646515
0.674363
0.691799
0.659128
0.661694
0.63496
0.644745
0.63021
0.641534
0.61923
0.642866
0.618831
0.640407
0.605299
0.648746
0.615068
0.64747
0.608214
0.659273
0.617029
0.643734
0.605717
0.635104
0.592881
0.616944
0.573029
0.602505
0.55727
0.589141
0.548583
0.604705
0.555351
0.602304
0.561795
0.613084
0.902743
0.897436
0.924565
0.916294
0.952362
0.8988
0.972996
0.927148
0.981782
0.917725
0.959758
0.908907
0.971051
0.886705
0.947979
0.867013
0.935697
0.872829
0.937989
0.87717
0.961446
0.919928
0.977982
0.864945
1.00946
0.97893
0.974551
0.700976
0.693519
0.767598
0.776006
0.815453
1.07406
1.10673
1.13423
1.06329
1.01446
0.990154
0.948303
0.924984
0.870546
0.818888
0.790602
0.731902
0.681811
0.608489
0.572333
0.537902
0.522533
0.501692
0.477906
0.506294
0.585975
0.617449
0.734692
0.769043
0.833268
0.892902
1.01839
0.878932
1.02767
0.94857
0.981104
0.967079
0.876373
0.840457
0.970298
0.813315
0.845395
0.909198
0.96275
0.9281
0.849688
0.813863
0.844415
0.828813
0.873821
0.824852
0.942587
0.895577
0.98967
0.925077
0.957107
0.705572
0.695215
0.686564
0.924768
0.858965
0.905211
0.870232
0.806683
0.756805
0.734495
0.627721
0.619365
0.588718
0.5941
0.577373
0.534507
0.596831
0.552274
0.522936
0.560007
0.597658
0.541758
0.772432
0.770943
0.755622
0.838637
0.772578
0.705293
0.445947
0.524485
0.528086
0.525757
0.525201
0.570183
0.598645
0.624919
0.571159
0.604474
0.58991
0.59158
0.588346
0.590934
0.569205
0.59915
0.591151
0.62689
0.597265
0.618347
0.543875
0.613564
0.62597
0.624914
0.661714
0.641905
0.653008
0.639651
0.632947
0.632704
0.65276
0.68209
0.667571
0.668523
0.657327
0.650322
0.64823
0.632187
0.648906
0.632766
0.662554
0.639287
0.68947
0.626254
0.691298
0.628211
0.698587
0.63114
0.695849
0.641235
0.695212
0.638661
0.676008
0.629883
0.670119
0.624121
0.663684
0.600946
0.662487
0.598604
0.647391
0.594734
0.629311
0.5825
0.636851
0.596802
0.654701
0.605562
0.664573
0.614753
0.66948
0.955098
0.94108
0.975016
0.9482
0.986279
0.944804
0.993373
0.935872
0.999431
0.945363
1.00398
0.972558
1.02106
0.947454
1.05206
1.0031
0.91915
1.01967
1.08448
1.01653
1.07153
1.06329
1.0563
1.09037
1.14597
1.25674
1.25636
1.24093
1.25718
1.15539
1.09629
1.04008
1.01237
0.986418
0.958293
0.91963
0.8943
0.855909
0.792992
0.726937
0.678807
0.622887
0.599177
0.5618
0.542865
0.520958
0.511507
0.490686
0.461784
0.459245
0.48689
0.558344
0.60266
0.663377
0.726676
0.769692
0.921691
0.959369
1.01094
0.990912
0.999977
0.879348
0.865742
0.834645
0.937527
0.798194
0.877011
0.759602
0.807264
0.730459
0.818489
0.791609
0.904404
0.914364
0.965674
0.931977
0.998532
0.948668
0.920548
0.706129
0.701994
0.74823
0.815532
0.769325
0.798517
0.711683
0.719549
0.649044
0.581408
0.528807
0.552185
0.51393
0.572575
0.611448
0.669545
0.644164
0.562012
0.57056
0.525175
0.61555
0.762971
0.716817
0.707016
0.82717
0.738983
0.674798
0.624884
0.524545
0.538775
0.56383
0.546635
0.573462
0.596064
0.578254
0.645837
0.61361
0.661096
0.636594
0.657247
0.628352
0.634844
0.600395
0.646506
0.629365
0.648892
0.623552
0.628107
0.569405
0.601974
0.552052
0.60742
0.593666
0.619282
0.627644
0.633765
0.642127
0.637818
0.652445
0.653385
0.659958
0.658268
0.670272
0.648815
0.686669
0.627156
0.663436
0.629096
0.668761
0.62822
0.688914
0.631729
0.695973
0.629377
0.699276
0.638811
0.705703
0.641993
0.705164
0.644411
0.702493
0.645801
0.704539
0.626812
0.692062
0.632428
0.702459
0.631264
0.696271
0.63753
0.689244
0.630668
0.686833
0.619448
0.675926
0.615682
0.676223
0.627698
0.684626
0.653464
0.701097
0.668415
0.723056
0.99671
0.955435
1.02934
0.977783
1.05008
1.00547
1.06295
1.03835
1.08018
1.06652
1.16484
1.09453
1.13664
1.00159
1.22786
1.40654
1.45598
1.48142
1.48586
1.46771
1.45735
1.41037
1.38312
1.32259
1.27009
1.16465
1.13449
1.10306
1.04997
1.00405
0.968997
0.940573
0.898128
0.847828
0.784925
0.735412
0.71271
0.653487
0.632598
0.592881
0.559375
0.53843
0.528815
0.51725
0.523079
0.499932
0.471521
0.460584
0.476967
0.506389
0.535618
0.580828
0.65613
0.701255
0.910739
0.943384
0.984185
1.00811
0.888632
0.86059
0.844037
0.840358
0.861773
0.765987
0.796165
0.773519
0.826727
0.806163
0.844046
0.839493
0.855828
0.854123
0.857173
0.843922
0.839515
0.620048
0.848931
0.806281
0.806416
0.756824
0.716509
0.647505
0.682448
0.626462
0.576761
0.512193
0.541588
0.522487
0.832127
0.735092
0.751971
0.656654
0.698221
0.729816
0.70452
0.790663
0.746389
0.736201
0.771488
0.839849
0.68659
0.646926
0.520109
0.531448
0.513491
0.534712
0.518787
0.539223
0.567869
0.586128
0.593648
0.598473
0.609525
0.624409
0.63002
0.624087
0.656418
0.664401
0.718705
0.685827
0.721955
0.67523
0.684878
0.641947
0.660701
0.582941
0.620432
0.57909
0.63772
0.627116
0.655246
0.656644
0.66778
0.661604
0.655009
0.675364
0.672661
0.711588
0.684705
0.743716
0.675528
0.737022
0.664965
0.705524
0.65086
0.737174
0.664477
0.748308
0.673804
0.751943
0.669442
0.748214
0.659095
0.745396
0.653706
0.741033
0.645199
0.734784
0.64139
0.731276
0.661689
0.728263
0.666771
0.72298
0.67484
0.723643
0.665534
0.716931
0.67755
0.715988
0.674776
0.692853
0.665397
0.701499
0.667507
0.734121
0.670773
0.767547
0.693329
0.774729
0.699907
0.762881
0.890248
1.01641
1.09671
1.05315
1.14008
1.04182
1.04538
1.39384
1.55141
1.70435
1.75056
1.85061
1.75598
1.7153
1.64436
1.56582
1.51158
1.45177
1.38926
1.33481
1.28108
1.24847
1.2056
1.16826
1.1298
1.08421
1.04603
1.00842
0.964259
0.878302
0.823005
0.759288
0.692436
0.660596
0.643586
0.609972
0.580955
0.555405
0.535715
0.520332
0.525543
0.50983
0.522524
0.501368
0.497
0.46556
0.486986
0.503765
0.515001
0.558588
0.676916
0.646458
0.918506
1.00272
1.05442
1.00147
0.995058
0.979515
0.980171
0.925929
0.865103
0.85637
0.857802
0.858415
0.876261
0.851351
0.872411
0.865624
0.863818
0.851975
0.862326
0.565939
0.903042
0.850039
0.853128
0.806398
0.722963
0.65734
0.694156
0.646327
0.617816
0.542061
0.574766
0.520515
0.850973
0.808096
0.864316
0.802178
0.833066
0.76562
0.775933
0.790276
0.73208
0.721295
0.83334
0.781314
0.668243
0.627844
0.51864
0.54656
0.516543
0.555014
0.527579
0.569763
0.537382
0.594688
0.570469
0.60922
0.565417
0.601195
0.584996
0.603095
0.616843
0.622343
0.672591
0.640417
0.697119
0.664321
0.724717
0.713405
0.749884
0.692068
0.738655
0.624157
0.681096
0.616428
0.674959
0.649294
0.68138
0.665841
0.664505
0.680335
0.678664
0.708267
0.687799
0.744406
0.679958
0.748406
0.678042
0.759578
0.67522
0.763781
0.678712
0.753599
0.687448
0.759994
0.685077
0.763382
0.670549
0.764621
0.673252
0.769827
0.674029
0.771796
0.695361
0.766005
0.696924
0.762721
0.713691
0.759187
0.719201
0.756194
0.712037
0.746873
0.722828
0.766178
0.709768
0.741275
0.694814
0.730201
0.69067
0.729283
0.677245
0.720388
0.707802
0.763908
0.74658
0.760426
0.727504
1.00118
1.47778
1.51306
1.3966
1.56892
1.55106
1.58658
1.57552
1.61104
1.66645
1.68573
1.68677
1.72042
1.65454
1.56447
1.4973
1.44137
1.39468
1.35792
1.30284
1.25182
1.19758
1.13918
1.09226
1.06794
1.05264
1.00104
0.94782
0.884378
0.849234
0.802804
0.765094
0.732187
0.697219
0.667406
0.629832
0.584523
0.551046
0.527095
0.528545
0.506155
0.517977
0.499972
0.499917
0.481083
0.485873
0.460527
0.492264
0.496985
0.543159
0.567969
0.639035
0.626636
0.941214
1.02368
1.01517
0.978245
1.01364
0.987464
0.991048
0.993695
0.957837
0.95225
0.954429
0.571472
0.634773
0.590413
0.599577
0.553771
0.578974
0.871418
0.887786
0.892179
0.921776
0.896226
0.840746
0.733718
0.754804
0.706809
0.679142
0.570085
0.606885
0.615171
0.947626
0.858495
0.86925
0.805836
0.878523
0.794291
0.784148
0.773375
0.753332
0.748048
0.823573
0.795801
0.668429
0.634545
0.49763
0.549666
0.526642
0.576253
0.538502
0.57118
0.524394
0.583963
0.566092
0.587717
0.59435
0.603666
0.580039
0.604619
0.603951
0.607627
0.642786
0.607641
0.66767
0.627811
0.699185
0.642642
0.707336
0.66749
0.719299
0.645854
0.720618
0.630987
0.693623
0.639707
0.684212
0.67663
0.683525
0.678528
0.677866
0.695706
0.695079
0.734584
0.710724
0.75469
0.708019
0.765613
0.715345
0.770845
0.696635
0.791752
0.689303
0.787099
0.679241
0.769337
0.733214
0.820804
0.737724
0.799947
0.737717
0.791567
0.726581
0.797167
0.726729
0.783201
0.720156
0.771251
0.716917
0.740066
0.701989
0.721395
0.708393
0.68073
0.719033
0.695151
0.728069
0.665447
0.714178
0.687513
0.818951
1.36327
1.49394
1.45399
1.52516
1.53493
1.57306
1.65372
1.66355
1.7666
1.71471
1.85389
1.77892
1.83552
1.62134
1.79653
1.84701
1.87326
1.86568
1.807
1.68815
1.56531
1.46723
1.37602
1.32912
1.28921
1.24848
1.20809
1.16593
1.11578
1.07178
1.01853
0.965991
0.923527
0.908032
0.887425
0.861372
0.837093
0.805033
0.773863
0.743503
0.704246
0.693225
0.641288
0.620508
0.579336
0.570843
0.555373
0.554602
0.54304
0.544081
0.524456
0.542351
0.518517
0.531015
0.497863
0.528383
0.536512
0.592557
0.623096
0.63876
0.631291
0.949323
1.01156
0.944735
0.99461
0.972303
1.00084
0.956203
0.81866
0.837442
0.823498
0.864643
0.847866
0.856308
0.852698
0.889871
0.87002
0.901828
0.899034
0.925609
0.908172
0.831775
0.811563
0.815958
0.765074
0.740317
0.627913
0.617774
0.660205
0.948092
0.882467
0.892515
0.825859
0.86033
0.809443
0.842524
0.801076
0.760439
0.754153
0.74677
0.855047
0.761525
0.707633
0.5335
0.557195
0.523939
0.563765
0.531703
0.578277
0.538002
0.576612
0.536881
0.578554
0.546748
0.578888
0.54317
0.58498
0.568365
0.59464
0.592031
0.607449
0.618617
0.622101
0.667041
0.633551
0.696249
0.640243
0.725093
0.651606
0.715769
0.632968
0.700962
0.604565
0.700474
0.676667
0.674956
0.656401
0.689148
0.637074
0.668631
0.649186
0.686259
0.685411
0.71052
0.744094
0.71003
0.755008
0.684999
0.760842
0.69165
1.04243
0.661961
0.789925
0.715068
0.78642
0.737569
0.800979
0.725329
0.798814
0.691282
0.767495
0.609745
0.748426
0.667119
0.739799
0.680109
0.71196
0.76589
1.18764
1.3658
1.27927
1.40991
1.32101
1.45755
1.39849
1.54362
1.52155
1.62355
1.59597
1.67493
1.65945
1.71387
1.69184
1.75892
1.77761
1.82147
1.8182
1.86592
1.83828
1.8018
1.73893
1.67725
1.61329
1.5812
1.56227
1.58388
1.61817
1.59985
1.54096
1.45308
1.35706
1.2824
1.19354
1.15606
1.12978
1.10032
1.06532
1.01491
0.981112
0.939914
0.905014
0.863948
0.840646
0.824473
0.801725
0.773598
0.744298
0.712402
0.692134
0.660988
0.631551
0.6009
0.584974
0.567553
0.552806
0.551914
0.54655
0.5412
0.523902
0.517293
0.502713
0.496297
0.497777
0.51672
0.500734
0.534765
0.551193
0.645528
0.664648
0.688191
0.671662
0.93659
1.02844
0.915698
0.933673
0.952921
0.977762
0.955945
0.917639
0.890971
0.813237
0.787902
0.701841
0.717233
0.665803
0.77554
0.770576
0.815365
0.773775
0.799321
0.77855
0.822452
0.80369
0.800432
0.640527
0.64032
0.649608
0.952135
0.885392
0.930529
0.903572
0.931096
0.824876
0.861688
0.819171
0.766252
0.758646
0.766879
0.868206
0.822672
0.727952
0.666089
0.650032
0.514503
0.556607
0.528769
0.561888
0.540677
0.582406
0.545755
0.575456
0.534262
0.562768
0.553182
0.570528
0.574666
0.594931
0.572368
0.595731
0.569931
0.593614
0.599342
0.597847
0.614959
0.576726
0.646405
0.588476
0.656072
0.581449
0.658417
0.618532
0.528392
0.596649
0.645495
0.559213
0.658316
0.579269
0.65228
0.584079
0.656713
0.608661
0.670083
0.623595
0.720383
0.667228
0.808322
0.933341
0.657
0.537111
0.443668
0.5942
0.605071
0.670505
1.0677
1.3448
1.42426
1.38096
1.45983
1.4292
1.45586
1.4307
1.47909
1.45161
1.50442
1.49661
1.56757
1.56926
1.60619
1.61018
1.64533
1.63924
1.68791
1.65241
1.70967
1.6939
1.74632
1.74462
1.80509
1.79945
1.84827
1.80999
1.85929
1.83473
1.88406
1.80905
1.72768
1.66827
1.63796
1.57738
1.545
1.49025
1.39266
1.33509
1.29734
1.29063
1.26073
1.27768
1.30666
1.26503
1.18036
1.12076
1.04661
1.00021
0.9669
0.944108
0.920686
0.891165
0.862393
0.82793
0.80011
0.776628
0.751953
0.725183
0.708036
0.700365
0.671265
0.641079
0.61642
0.582698
0.57437
0.560678
0.541869
0.539605
0.528965
0.522563
0.521986
0.500788
0.502925
0.490366
0.482816
0.482076
0.465877
0.442834
0.451696
0.473152
0.55267
0.557093
0.60589
0.66888
0.690977
0.662019
0.967454
0.964057
0.839238
0.90609
0.885025
0.89145
0.911783
0.837607
0.863537
0.757921
0.814818
0.773271
0.81595
0.804366
0.840081
0.78761
0.797084
0.80794
0.841089
0.788883
0.718824
0.637617
0.63879
0.655207
0.94991
0.863826
0.924409
0.911084
0.94247
0.852554
0.891471
0.817979
0.795031
0.770787
0.754625
0.769729
0.854789
0.765745
0.685338
0.683419
0.650059
0.513139
0.538514
0.567689
0.570255
0.561353
0.568204
0.562978
0.548616
0.573037
0.556878
0.563897
0.55483
0.56098
0.57171
0.570526
0.571339
0.557523
0.558901
0.564746
0.551238
0.581175
0.5538
0.58721
0.59676
0.584974
0.616798
0.669086
1.08814
1.10457
1.06398
1.04984
1.14454
1.12888
1.17945
1.139
1.18313
1.14233
1.17703
1.14539
1.19643
1.14405
1.18959
1.14638
1.19536
1.18905
1.25181
0.408148
0.43703
1.38079
1.41932
1.40066
1.43819
1.43357
1.45944
1.48062
1.52746
1.52612
1.59939
1.57858
1.6311
1.59842
1.65606
1.61844
1.69051
1.65607
1.71614
1.75236
1.76107
1.74184
1.77857
1.73247
1.76024
1.71871
1.76025
1.73337
1.78246
1.77811
1.79471
1.73802
1.67366
1.61327
1.57464
1.45698
1.38452
1.3347
1.28913
1.25006
1.21475
1.17565
1.12569
1.08172
1.05549
1.04052
1.03912
1.03609
1.01891
0.98124
0.891806
0.922022
0.84114
0.807172
0.778527
0.754491
0.727582
0.710813
0.687428
0.659511
0.650892
0.627761
0.606131
0.593617
0.577221
0.561167
0.540452
0.531213
0.514984
0.525624
0.516398
0.51571
0.505423
0.497362
0.491393
0.48278
0.468784
0.47719
0.468933
0.453076
0.439345
0.43798
0.43364
0.427818
0.427383
0.45004
0.477089
0.502974
0.611844
0.620051
0.699923
0.659892
0.994309
0.850532
0.870157
0.874521
0.915244
0.936727
0.763536
0.70749
0.765848
0.713933
0.760203
0.725122
0.771752
0.76579
0.7574
0.692613
0.707738
0.662579
0.666959
0.597275
0.623445
0.651405
0.784958
0.832993
0.927619
0.921057
0.897281
0.855954
0.885059
0.847632
0.816766
0.759973
0.615913
0.63367
0.652178
0.684851
0.622362
0.607363
0.564139
0.562819
0.534339
0.533775
0.508612
0.517214
0.515258
0.510181
0.540809
0.529727
0.546945
0.520405
0.532974
0.52999
0.574177
0.549262
0.614963
0.544205
0.620268
0.812465
0.879704
0.873015
0.914432
0.908791
0.933638
0.915123