/*--------------------------------*- C++ -*----------------------------------*\
| =========                 |                                                 |
| \\      /  F ield         | OpenFOAM: The Open Source CFD Toolbox           |
|  \\    /   O peration     | Version:  2312                                  |
|   \\  /    A nd           | Website:  www.openfoam.com                      |
|    \\/     M anipulation  |                                                 |
\*---------------------------------------------------------------------------*/
FoamFile
{
    version     2.0;
    format      ascii;
    arch        "LSB;label=32;scalar=64";
    class       volVectorField;
    location    "0.2";
    object      UMean;
}
// * * * * * * * * * * * * * * * * * * * * * * * * * * * * * * * * * * * * * //

dimensions      [0 1 -1 0 0 0 0];

internalField   nonuniform List<vector> 
12225
(
(9.50475 0.0506705 0)
(9.7219 0.304719 0)
(6.65411 0.409585 0)
(4.50276 0.182201 0)
(3.43569 0.0118411 0)
(2.96926 -0.0484759 0)
(2.77376 -0.0490132 0)
(2.70828 -0.0362396 0)
(2.70091 -0.0229793 0)
(2.70747 -0.0128569 0)
(2.70922 -0.00642007 0)
(2.70836 -0.00336717 0)
(2.70452 -0.00238759 0)
(2.70511 -0.00312183 0)
(2.71227 -0.0021157 0)
(2.70312 -0.00803059 0)
(2.77516 0.00553447 0)
(2.62573 -0.0481313 0)
(9.88973 0.0991197 0)
(10.2346 0.286321 0)
(10.0276 0.600415 0)
(9.32117 0.572259 0)
(8.55069 0.376293 0)
(7.89673 0.207533 0)
(7.38351 0.105682 0)
(7.02532 0.0491807 0)
(6.7848 0.022123 0)
(6.61936 0.0110259 0)
(6.49717 0.00712157 0)
(6.40539 0.00484378 0)
(6.33096 0.00383678 0)
(6.27358 0.000170107 0)
(6.22796 0.00059072 0)
(6.19149 -0.00997792 0)
(6.18195 -0.00661678 0)
(6.14471 -0.0388984 0)
(9.97467 0.0781308 0)
(10.0409 0.275452 0)
(10.2485 0.571023 0)
(10.436 0.61115 0)
(10.4062 0.463681 0)
(10.2048 0.302504 0)
(9.91809 0.198398 0)
(9.63675 0.138878 0)
(9.38881 0.104691 0)
(9.17568 0.0841411 0)
(8.98962 0.0704426 0)
(8.8289 0.0591153 0)
(8.68927 0.0495106 0)
(8.5714 0.0388276 0)
(8.47272 0.0312783 0)
(8.38867 0.0164148 0)
(8.32868 0.00640588 0)
(8.26037 -0.0253507 0)
(9.99308 0.0865879 0)
(10.0282 0.259631 0)
(10.1775 0.485296 0)
(10.4287 0.532155 0)
(10.616 0.437294 0)
(10.6702 0.317551 0)
(10.6297 0.234738 0)
(10.5541 0.18524 0)
(10.4742 0.15519 0)
(10.3943 0.135223 0)
(10.3155 0.120701 0)
(10.2345 0.107868 0)
(10.1566 0.0968398 0)
(10.0782 0.084117 0)
(10.009 0.0730956 0)
(9.93654 0.055837 0)
(9.88223 0.0396921 0)
(9.80943 0.0117027 0)
(9.99996 0.0799446 0)
(10.0348 0.236302 0)
(10.1545 0.420503 0)
(10.3635 0.472275 0)
(10.5423 0.405491 0)
(10.629 0.307767 0)
(10.6461 0.23398 0)
(10.6372 0.188576 0)
(10.6264 0.161449 0)
(10.6177 0.143849 0)
(10.6107 0.131229 0)
(10.6022 0.120235 0)
(10.5944 0.110461 0)
(10.5834 0.0989751 0)
(10.575 0.0878527 0)
(10.5605 0.0721052 0)
(10.5515 0.0560681 0)
(10.5284 0.0335096 0)
(10.0098 0.0748513 0)
(10.0453 0.214846 0)
(10.1464 0.365368 0)
(10.3208 0.422192 0)
(10.4797 0.375182 0)
(10.5641 0.293838 0)
(10.5897 0.227655 0)
(10.5939 0.185046 0)
(10.5967 0.158835 0)
(10.6025 0.141291 0)
(10.6102 0.128256 0)
(10.6183 0.116943 0)
(10.6272 0.106665 0)
(10.6355 0.0953832 0)
(10.6441 0.0838839 0)
(10.6507 0.0694788 0)
(10.6565 0.0541914 0)
(10.6569 0.03574 0)
(10.0105 0.0697264 0)
(10.0484 0.194509 0)
(10.1388 0.318244 0)
(10.2834 0.370688 0)
(10.4239 0.341038 0)
(10.5083 0.276403 0)
(10.5405 0.219417 0)
(10.5515 0.180699 0)
(10.5595 0.15537 0)
(10.5691 0.137506 0)
(10.5798 0.123732 0)
(10.5911 0.111805 0)
(10.6027 0.100914 0)
(10.6143 0.0895805 0)
(10.6255 0.0779018 0)
(10.6356 0.0644775 0)
(10.6437 0.0502099 0)
(10.649 0.0345642 0)
(10.0116 0.0625541 0)
(10.0488 0.173947 0)
(10.1288 0.276528 0)
(10.2495 0.323393 0)
(10.3696 0.304846 0)
(10.4509 0.255528 0)
(10.4909 0.208471 0)
(10.5093 0.174142 0)
(10.5224 0.150184 0)
(10.5351 0.13238 0)
(10.5479 0.118224 0)
(10.5606 0.105942 0)
(10.5732 0.0947017 0)
(10.5855 0.0833744 0)
(10.5971 0.0717749 0)
(10.6076 0.059156 0)
(10.6161 0.0459468 0)
(10.6226 0.0321787 0)
(10.0006 0.0553029 0)
(10.0398 0.153561 0)
(10.1128 0.238576 0)
(10.2163 0.280319 0)
(10.3199 0.270174 0)
(10.3952 0.232704 0)
(10.4389 0.194387 0)
(10.4638 0.164667 0)
(10.4821 0.142602 0)
(10.4982 0.125404 0)
(10.5134 0.111306 0)
(10.5276 0.0989698 0)
(10.5412 0.0876322 0)
(10.5541 0.0764406 0)
(10.5661 0.0651218 0)
(10.5768 0.0532699 0)
(10.5855 0.0410899 0)
(10.5926 0.0288086 0)
(9.99661 0.0462378 0)
(10.0329 0.132565 0)
(10.0978 0.2035 0)
(10.1864 0.240453 0)
(10.2761 0.236757 0)
(10.3449 0.209084 0)
(10.3892 0.178018 0)
(10.4177 0.152452 0)
(10.4395 0.132508 0)
(10.4585 0.116345 0)
(10.4758 0.102704 0)
(10.4916 0.0906205 0)
(10.5063 0.0794555 0)
(10.5199 0.0685828 0)
(10.5322 0.0577246 0)
(10.5433 0.0466666 0)
(10.5524 0.0354962 0)
(10.5602 0.0245084 0)
(10.0031 0.0377698 0)
(10.0321 0.112239 0)
(10.0869 0.17145 0)
(10.1612 0.203757 0)
(10.238 0.204522 0)
(10.3001 0.184811 0)
(10.3434 0.160028 0)
(10.3736 0.138213 0)
(10.3973 0.120389 0)
(10.418 0.105453 0)
(10.4367 0.0925138 0)
(10.4537 0.0809073 0)
(10.4692 0.0701331 0)
(10.4834 0.0597443 0)
(10.4961 0.0494882 0)
(10.5075 0.0392635 0)
(10.517 0.0290784 0)
(10.5255 0.0192532 0)
(10.0105 0.0348989 0)
(10.0323 0.0974325 0)
(10.0781 0.146263 0)
(10.1411 0.173774 0)
(10.2073 0.176681 0)
(10.2635 0.162466 0)
(10.3052 0.142581 0)
(10.336 0.12391 0)
(10.3607 0.107961 0)
(10.3823 0.0941879 0)
(10.4017 0.0820006 0)
(10.4192 0.0709541 0)
(10.4351 0.0606717 0)
(10.4495 0.0508294 0)
(10.4625 0.0412051 0)
(10.4741 0.0317619 0)
(10.4838 0.0224445 0)
(10.4927 0.0135953 0)
(9.99986 0.0277669 0)
(10.0238 0.0817679 0)
(10.0658 0.122673 0)
(10.1212 0.146059 0)
(10.1793 0.15008 0)
(10.2304 0.140052 0)
(10.2705 0.124378 0)
(10.3015 0.10866 0)
(10.3269 0.0945857 0)
(10.349 0.0820499 0)
(10.3687 0.0707245 0)
(10.3865 0.0603432 0)
(10.4026 0.0506454 0)
(10.4171 0.0414099 0)
(10.4301 0.0324499 0)
(10.4417 0.0237716 0)
(10.4516 0.0152696 0)
(10.4607 0.00730778 0)
(10.0048 0.0225503 0)
(10.0218 0.0651285 0)
(10.0561 0.0979687 0)
(10.1026 0.117031 0)
(10.1523 0.121385 0)
(10.1978 0.11473 0)
(10.2357 0.102873 0)
(10.2664 0.0900813 0)
(10.292 0.0780378 0)
(10.3144 0.0669748 0)
(10.3344 0.0567709 0)
(10.3524 0.0472957 0)
(10.3685 0.0383945 0)
(10.383 0.0299415 0)
(10.3959 0.0217948 0)
(10.4075 0.0139906 0)
(10.4175 0.00639209 0)
(10.4267 -0.000638417 0)
(10.0011 0.0174801 0)
(10.0173 0.0480152 0)
(10.0465 0.0725137 0)
(10.0854 0.0869684 0)
(10.1277 0.0908307 0)
(10.1679 0.0865357 0)
(10.203 0.0778315 0)
(10.2329 0.0677553 0)
(10.2584 0.0578044 0)
(10.2809 0.0484038 0)
(10.301 0.0395795 0)
(10.319 0.0312891 0)
(10.335 0.0234547 0)
(10.3495 0.0160199 0)
(10.3623 0.00888405 0)
(10.3738 0.00210025 0)
(10.3837 -0.00448033 0)
(10.3929 -0.0105127 0)
(10.0073 0.0116568 0)
(10.0203 0.0318061 0)
(10.0436 0.0476795 0)
(10.0748 0.0569011 0)
(10.1096 0.059169 0)
(10.1441 0.0559313 0)
(10.1759 0.049426 0)
(10.204 0.0416258 0)
(10.2289 0.0336883 0)
(10.2511 0.0260516 0)
(10.2709 0.0188049 0)
(10.2887 0.0119453 0)
(10.3046 0.00543333 0)
(10.3189 -0.000748054 0)
(10.3315 -0.00667066 0)
(10.3429 -0.0122747 0)
(10.3528 -0.0177092 0)
(10.3619 -0.0226525 0)
(9.99954 0.00424807 0)
(10.0109 0.0156734 0)
(10.0309 0.0231417 0)
(10.0577 0.0265642 0)
(10.0882 0.0261294 0)
(10.1193 0.0226378 0)
(10.1491 0.0172826 0)
(10.1765 0.0111867 0)
(10.2012 0.00507717 0)
(10.2235 -0.000740543 0)
(10.2436 -0.00621953 0)
(10.2615 -0.0113893 0)
(10.2776 -0.0163016 0)
(10.2919 -0.0209684 0)
(10.3047 -0.0254468 0)
(10.3162 -0.0296765 0)
(10.3262 -0.0338037 0)
(10.3354 -0.0375276 0)
(9.99742 -0.00185606 0)
(10.0055 -0.00206307 0)
(10.0224 -0.00369022 0)
(10.0464 -0.0066835 0)
(10.0743 -0.0108886 0)
(10.1035 -0.0158691 0)
(10.1322 -0.0210495 0)
(10.1593 -0.0259364 0)
(10.1842 -0.030286 0)
(10.2069 -0.0340854 0)
(10.2273 -0.0374585 0)
(10.2455 -0.0405429 0)
(10.2617 -0.0434498 0)
(10.2762 -0.0462212 0)
(10.2891 -0.0489168 0)
(10.3006 -0.0514854 0)
(10.3109 -0.0540575 0)
(10.32 -0.056363 0)
(10.0055 -0.00320878 0)
(10.0136 -0.0182148 0)
(10.0297 -0.0312675 0)
(10.0527 -0.0427924 0)
(10.08 -0.05275 0)
(10.1092 -0.0608551 0)
(10.1386 -0.066894 0)
(10.1666 -0.070934 0)
(10.1925 -0.0733384 0)
(10.2159 -0.0746333 0)
(10.2366 -0.0753224 0)
(10.2549 -0.0757604 0)
(10.2711 -0.0761559 0)
(10.2853 -0.076592 0)
(10.298 -0.0771312 0)
(10.3093 -0.0777353 0)
(10.3194 -0.0784971 0)
(10.3282 -0.0791948 0)
(10.004 -0.0118735 0)
(10.0149 -0.036651 0)
(10.034 -0.0597384 0)
(10.0602 -0.0798342 0)
(10.0913 -0.0959468 0)
(10.125 -0.10751 0)
(10.1589 -0.114406 0)
(10.191 -0.117147 0)
(10.2201 -0.116855 0)
(10.2454 -0.114849 0)
(10.267 -0.112192 0)
(10.2856 -0.109512 0)
(10.3016 -0.107092 0)
(10.3156 -0.105019 0)
(10.3279 -0.103327 0)
(10.3388 -0.101967 0)
(10.3485 -0.100975 0)
(10.357 -0.100157 0)
(10.0007 -0.0191262 0)
(10.0106 -0.0555104 0)
(10.0314 -0.0884303 0)
(10.0621 -0.116645 0)
(10.0995 -0.138713 0)
(10.1404 -0.153421 0)
(10.1817 -0.16031 0)
(10.2201 -0.16039 0)
(10.2536 -0.15599 0)
(10.2813 -0.149613 0)
(10.3038 -0.142995 0)
(10.3225 -0.136946 0)
(10.3383 -0.131708 0)
(10.3518 -0.127284 0)
(10.3637 -0.123628 0)
(10.374 -0.120631 0)
(10.3833 -0.118243 0)
(10.3914 -0.11626 0)
(10.0055 -0.0188027 0)
(10.0177 -0.0692996 0)
(10.0413 -0.113673 0)
(10.0759 -0.151692 0)
(10.1193 -0.181493 0)
(10.1684 -0.200376 0)
(10.2184 -0.206784 0)
(10.2642 -0.202635 0)
(10.3018 -0.192459 0)
(10.3308 -0.180575 0)
(10.353 -0.169439 0)
(10.3705 -0.159856 0)
(10.3849 -0.151856 0)
(10.3972 -0.14527 0)
(10.4079 -0.139912 0)
(10.4171 -0.135575 0)
(10.4255 -0.132091 0)
(10.4327 -0.129225 0)
(9.9869 -0.0299312 0)
(10.0043 -0.0878844 0)
(10.0334 -0.14211 0)
(10.0751 -0.19032 0)
(10.1286 -0.229322 0)
(10.1911 -0.252963 0)
(10.255 -0.257154 0)
(10.3112 -0.245827 0)
(10.3541 -0.227302 0)
(10.384 -0.208333 0)
(10.405 -0.191936 0)
(10.4206 -0.178594 0)
(10.4332 -0.167888 0)
(10.4437 -0.159342 0)
(10.4528 -0.152547 0)
(10.4606 -0.147147 0)
(10.4677 -0.142825 0)
(10.4739 -0.139303 0)
(9.9929 -0.0344896 0)
(10.0081 -0.102609 0)
(10.0374 -0.168463 0)
(10.0822 -0.229173 0)
(10.1444 -0.281208 0)
(10.2219 -0.311224 0)
(10.3024 -0.31117 0)
(10.3698 -0.289203 0)
(10.4158 -0.259392 0)
(10.4435 -0.231615 0)
(10.4603 -0.209251 0)
(10.4719 -0.192089 0)
(10.481 -0.178982 0)
(10.4886 -0.168944 0)
(10.4952 -0.161203 0)
(10.5011 -0.155178 0)
(10.5065 -0.150391 0)
(10.5115 -0.146504 0)
(9.99572 -0.041187 0)
(10.0078 -0.117105 0)
(10.0369 -0.192419 0)
(10.084 -0.267261 0)
(10.1561 -0.337028 0)
(10.2537 -0.37466 0)
(10.3561 -0.367579 0)
(10.4347 -0.330456 0)
(10.4807 -0.286536 0)
(10.503 -0.249027 0)
(10.5135 -0.220636 0)
(10.5197 -0.199988 0)
(10.5246 -0.185048 0)
(10.529 -0.174181 0)
(10.533 -0.166125 0)
(10.5368 -0.160029 0)
(10.5405 -0.155215 0)
(10.544 -0.151326 0)
(9.99122 -0.0401221 0)
(10.0055 -0.127582 0)
(10.0345 -0.211914 0)
(10.0815 -0.304286 0)
(10.165 -0.399606 0)
(10.2896 -0.442015 0)
(10.4165 -0.41978 0)
(10.5056 -0.364517 0)
(10.5507 -0.307137 0)
(10.5662 -0.261413 0)
(10.5687 -0.228257 0)
(10.5674 -0.204841 0)
(10.5657 -0.188463 0)
(10.5641 -0.177064 0)
(10.5625 -0.168885 0)
(10.5611 -0.162897 0)
(10.5594 -0.15813 0)
(10.5577 -0.15436 0)
(9.99998 -0.0478829 0)
(10.013 -0.139896 0)
(10.0354 -0.226229 0)
(10.0783 -0.340992 0)
(10.178 -0.472683 0)
(10.3383 -0.519456 0)
(10.4916 -0.474325 0)
(10.5841 -0.392335 0)
(10.6132 -0.318366 0)
(10.6033 -0.265063 0)
(10.5771 -0.228675 0)
(10.5463 -0.203873 0)
(10.5138 -0.186816 0)
(10.4814 -0.174936 0)
(10.4477 -0.166046 0)
(10.4146 -0.159221 0)
(10.3792 -0.153303 0)
(10.3457 -0.148377 0)
(9.98727 -0.0412265 0)
(10.0228 -0.139899 0)
(10.0295 -0.224983 0)
(10.0711 -0.369247 0)
(10.1944 -0.566423 0)
(10.3598 -0.623202 0)
(10.437 -0.543103 0)
(10.3981 -0.41773 0)
(10.2745 -0.311773 0)
(10.1151 -0.237762 0)
(9.95102 -0.189632 0)
(9.79588 -0.159536 0)
(9.6503 -0.140452 0)
(9.51483 -0.127508 0)
(9.38665 -0.117655 0)
(9.26815 -0.109631 0)
(9.15402 -0.102398 0)
(9.05162 -0.0961201 0)
(9.97136 -0.0667962 0)
(10.0705 -0.152919 0)
(9.98232 -0.227247 0)
(10.0753 -0.378141 0)
(9.85924 -0.598684 0)
(9.45833 -0.621068 0)
(8.9567 -0.497306 0)
(8.4599 -0.348541 0)
(8.00178 -0.231737 0)
(7.61932 -0.14746 0)
(7.31858 -0.0910312 0)
(7.08473 -0.0569869 0)
(6.89954 -0.0386795 0)
(6.74963 -0.0290434 0)
(6.6245 -0.0238416 0)
(6.52002 -0.0206988 0)
(6.42794 -0.0184314 0)
(6.35273 -0.0168031 0)
(9.83648 -0.0500964 0)
(9.59559 -0.131132 0)
(8.84493 -0.148512 0)
(8.34487 -0.347126 0)
(6.25196 -0.437037 0)
(4.64705 -0.251245 0)
(3.67905 -0.070778 0)
(3.11887 0.0275865 0)
(2.80571 0.0602261 0)
(2.66017 0.0645762 0)
(2.60683 0.0557348 0)
(2.58905 0.0427777 0)
(2.58403 0.0303056 0)
(2.58108 0.0204463 0)
(2.57501 0.0133081 0)
(2.56688 0.00866004 0)
(2.55534 0.00561583 0)
(2.54542 0.0036451 0)
(-0.00190598 0.00823574 -1.00741e-21)
(-0.00781209 0.00946614 1.00032e-21)
(-0.00897818 0.0026846 0)
(0.000271346 -0.0073822 0)
(0.0174563 -0.0158106 0)
(0.0395632 -0.0211856 -9.71019e-22)
(0.063257 -0.0236474 0)
(0.0868536 -0.0238882 0)
(0.109183 -0.0226335 0)
(0.129442 -0.0204357 0)
(0.147198 -0.0176913 9.37039e-22)
(0.162249 -0.0146709 0)
(0.174527 -0.0115588 0)
(0.184051 -0.00847273 0)
(0.190936 -0.00546636 0)
(0.195258 -0.00258255 9.05332e-22)
(0.197129 0.000107733 0)
(0.196739 0.00252202 0)
(0.194328 0.00457408 0)
(0.190203 0.0061783 0)
(0.184741 0.00724498 0)
(0.178396 0.00767835 0)
(0.171702 0.00737348 0)
(0.165298 0.00624125 8.56294e-22)
(0.159877 0.00423097 -8.50407e-22)
(0.156216 0.00138166 8.44597e-22)
(0.154965 -0.00216088 8.38869e-22)
(0.156576 -0.00607796 0)
(0.161145 -0.00977455 0)
(0.168102 -0.0125352 -8.22188e-22)
(0.176314 -0.0139303 -8.16812e-22)
(0.184751 -0.0141176 0)
(0.192851 -0.0135717 0)
(0.200381 -0.0127121 -8.01314e-22)
(0.207323 -0.0118078 0)
(0.213754 -0.0110052 0)
(0.219766 -0.010368 7.86669e-22)
(0.225432 -0.00990304 0)
(0.230794 -0.00959033 7.77385e-22)
(0.235866 -0.009412 1.54579e-21)
(0.240646 -0.00937253 0)
(0.245124 -0.00950686 0)
(0.249262 -0.00988192 0)
(0.252991 -0.0106021 0)
(0.256127 -0.0118332 0)
(0.258408 -0.0138383 1.4966e-21)
(0.259432 -0.0168091 1.48912e-21)
(0.258652 -0.0206212 1.48178e-21)
(0.255404 -0.0246218 0)
(0.248488 -0.0273735 -1.46742e-21)
(0.236153 -0.0269893 0)
(0.216074 -0.0216673 1.45294e-21)
(0.185923 -0.0102907 1.4452e-21)
(0.143589 0.00607561 0)
(0.0892614 0.0232507 0)
(0.025601 0.0360202 0)
(-0.0431987 0.0424077 1.41211e-21)
(-0.112819 0.042408 0)
(-0.179919 0.0388075 0)
(-0.243797 0.0351839 0)
(-0.304621 0.0320972 0)
(-0.362468 0.0294003 0)
(-0.417481 0.0270325 0)
(-0.469817 0.0249547 0)
(-0.519651 0.0231394 0)
(-0.567143 0.0215571 -1.36291e-21)
(-0.612446 0.0201727 0)
(-0.655706 0.0189552 0)
(-0.69706 0.017878 1.34522e-21)
(-0.736631 0.0169174 1.33833e-21)
(-0.774531 0.0160515 0)
(-0.810856 0.015261 -1.32278e-21)
(-0.84569 0.014531 1.31406e-21)
(-0.879103 0.0138533 0)
(-0.91116 0.0132242 -1.29461e-21)
(-0.941926 0.0126422 0)
(-0.971456 0.012103 0)
(-0.999804 0.0116022 1.26021e-21)
(-1.02702 0.0111363 0)
(-1.05314 0.010702 -1.2337e-21)
(-1.07822 0.010297 0)
(-1.10229 0.00991962 1.20432e-21)
(-1.12538 0.00956821 1.18855e-21)
(-1.14753 0.00924118 1.17207e-21)
(-1.16876 0.00893647 2.30978e-21)
(-1.18912 0.00865181 -2.27401e-21)
(-1.20861 0.00838471 0)
(-1.22726 0.00813295 0)
(-1.2451 0.00789457 0)
(-1.26212 0.00766786 -2.11728e-21)
(-1.27835 0.0074513 -2.07478e-21)
(-1.2938 0.00724349 2.03099e-21)
(-1.30848 0.00704311 0)
(-1.32238 0.00684898 -1.93965e-21)
(-1.33552 0.00665985 -1.89215e-21)
(-1.34789 0.00647479 -1.84346e-21)
(-1.3595 0.00629268 0)
(-1.37035 0.00611244 0)
(-1.38043 0.00593276 0)
(-1.38973 0.00575181 -1.63748e-21)
(-1.39827 0.0055676 0)
(-1.40601 0.00537881 0)
(-1.41297 0.00518512 1.47213e-21)
(-1.41913 0.00498729 0)
(-1.42447 0.00478626 0)
(-1.42901 0.00458344 1.29861e-21)
(-1.43272 0.00437957 0)
(-1.43561 0.00417598 0)
(-1.43768 0.0039738 -1.11806e-21)
(-1.43892 0.00377259 -1.05653e-21)
(-1.43933 0.00357276 0)
(-1.43892 0.0033768 9.31729e-22)
(-1.43767 0.00318635 0)
(-1.43559 0.00299962 -8.04954e-22)
(-1.43269 0.00281601 0)
(-1.42897 0.00263432 -6.76616e-22)
(-1.42441 0.00245213 -6.11993e-22)
(-1.41903 0.0022681 0)
(-1.41282 0.00208074 0)
(-1.40578 0.00189029 0)
(-1.39791 0.00169646 0)
(-1.3892 0.00149919 0)
(-1.37966 0.00129825 0)
(-1.36927 0.00109356 0)
(-1.35805 0.00088478 -9.1265e-23)
(-1.34598 0.000671657 2.65132e-23)
(-1.33307 0.000454218 0)
(-1.31931 0.000232523 0)
(-1.30471 6.97072e-06 0)
(-1.28925 -0.000222189 0)
(-1.27295 -0.000454737 -5.84971e-22)
(-1.25579 -0.000690382 0)
(-1.23777 -0.000928982 8.33924e-22)
(-1.2189 -0.00117047 -9.56696e-22)
(-1.19916 -0.00141505 0)
(-1.17856 -0.00166274 0)
(-1.1571 -0.00191369 0)
(-1.13476 -0.00216784 1.43448e-21)
(-1.11155 -0.00242519 1.55022e-21)
(-1.08746 -0.00268562 0)
(-1.06249 -0.00294898 1.77672e-21)
(-1.03664 -0.00321511 1.88736e-21)
(-1.00991 -0.00348387 -1.99618e-21)
(-0.982283 -0.00375501 0)
(-0.953766 -0.00402827 0)
(-0.924355 -0.00430337 -2.31113e-21)
(-0.894047 -0.00457991 0)
(-0.86284 -0.00485749 0)
(-0.830734 -0.00513565 0)
(-0.797727 -0.00541385 0)
(-0.763819 -0.0056915 2.79483e-21)
(-0.729013 -0.0059679 2.88503e-21)
(-0.69331 -0.00624221 0)
(-0.656715 -0.00651348 3.05862e-21)
(-0.619237 -0.00678039 0)
(-0.580884 -0.007042 0)
(-0.54167 -0.00729654 3.30163e-21)
(-0.501613 -0.00754086 0)
(-0.460741 -0.00777252 3.4518e-21)
(-0.419085 -0.00798476 0)
(-0.376687 -0.00816769 0)
(-0.333609 -0.00831934 3.65902e-21)
(-0.289933 -0.00843834 0)
(-0.245717 -0.00853113 3.78484e-21)
(-0.201028 -0.00859459 0)
(-0.155947 -0.00862461 0)
(-0.110559 -0.00862015 0)
(-0.0649704 -0.00857741 -4.00644e-21)
(-0.0192957 -0.00849307 0)
(0.0263346 -0.00836135 4.10212e-21)
(0.0717685 -0.00816634 0)
(0.116774 -0.00787051 0)
(0.161094 -0.00746489 0)
(0.204255 -0.00699009 0)
(0.246418 -0.00645381 0)
(0.285593 -0.00578073 0)
(0.326288 -0.00463852 0)
(0.350644 -0.00403544 -8.77317e-21)
(0.40065 0.000352654 0)
(0.36921 0.00410205 0)
(-0.000648125 0.011811 3.02269e-21)
(0.00319759 0.00587165 -3.00099e-21)
(0.0194661 -0.019902 0)
(0.0436071 -0.047789 1.97089e-21)
(0.0696905 -0.0657914 0)
(0.0941791 -0.07349 9.70155e-22)
(0.115897 -0.0739072 -1.92652e-21)
(0.134701 -0.0698939 -1.91226e-21)
(0.150774 -0.0634135 0)
(0.164363 -0.0556793 -1.88475e-21)
(0.175699 -0.0474266 -9.35165e-22)
(0.184976 -0.0391035 0)
(0.192352 -0.0309817 0)
(0.197967 -0.0232274 0)
(0.201934 -0.015937 0)
(0.204402 -0.00917281 -9.03707e-22)
(0.205524 -0.00300055 0)
(0.205417 0.00249386 1.78336e-21)
(0.204203 0.00720828 0)
(0.202017 0.0110238 0)
(0.199014 0.0138018 -1.74687e-21)
(0.195372 0.0153864 0)
(0.191297 0.0156111 1.72283e-21)
(0.187009 0.0143299 -8.55645e-22)
(0.182744 0.0114641 8.49795e-22)
(0.178713 0.00709483 -8.4399e-22)
(0.175059 0.00159957 -8.38223e-22)
(0.17169 -0.00430246 0)
(0.168165 -0.00955681 0)
(0.164058 -0.0128122 8.21143e-22)
(0.159317 -0.0137389 -8.15264e-22)
(0.154068 -0.0132095 0)
(0.148418 -0.0121096 0)
(0.142407 -0.0109484 7.99844e-22)
(0.135982 -0.00993838 0)
(0.129005 -0.00911015 0)
(0.121269 -0.00839271 -7.85227e-22)
(0.112509 -0.00768518 0)
(0.102396 -0.00690902 7.75097e-22)
(0.0905492 -0.00603098 -1.54319e-21)
(0.0765313 -0.00504206 0)
(0.0598275 -0.00387932 0)
(0.0398204 -0.00233669 -3.03309e-21)
(0.0157773 -1.05006e-05 -3.01697e-21)
(-0.0131267 0.0036611 -3.00129e-21)
(-0.0477647 0.00917513 1.49067e-21)
(-0.0891062 0.0168886 -1.48826e-21)
(-0.138079 0.0270701 -4.43819e-21)
(-0.195138 0.0400311 2.94253e-21)
(-0.259997 0.0558714 1.46679e-21)
(-0.331337 0.074032 0)
(-0.406722 0.0931855 -1.45169e-21)
(-0.483152 0.111371 1.44018e-21)
(-0.558046 0.126575 0)
(-0.630199 0.137232 0)
(-0.699912 0.142628 0)
(-0.768035 0.14332 -1.40738e-21)
(-0.835465 0.14045 0)
(-0.902207 0.135491 2.78868e-21)
(-0.967752 0.129641 0)
(-1.03167 0.123431 2.76566e-21)
(-1.09362 0.117188 0)
(-1.1534 0.111089 -2.74525e-21)
(-1.21094 0.105235 0)
(-1.26624 0.0996778 2.72492e-21)
(-1.31931 0.0944375 -1.3575e-21)
(-1.37021 0.0895131 0)
(-1.41899 0.0848917 -2.69065e-21)
(-1.46571 0.0805547 -1.33881e-21)
(-1.51045 0.0764795 -1.33187e-21)
(-1.55326 0.0726445 0)
(-1.59421 0.0690308 -1.31564e-21)
(-1.63338 0.0656216 -1.30747e-21)
(-1.67081 0.0623983 0)
(-1.70658 0.0593394 1.28796e-21)
(-1.74073 0.0564291 -2.55346e-21)
(-1.77329 0.0536568 0)
(-1.80432 0.0510116 -1.25353e-21)
(-1.83384 0.0484844 0)
(-1.8619 0.0460667 3.68023e-21)
(-1.88852 0.0437511 0)
(-1.91374 0.0415302 -3.59232e-21)
(-1.93758 0.039397 -1.18198e-21)
(-1.96006 0.0373453 1.16489e-21)
(-1.98121 0.0353686 2.29569e-21)
(-2.00105 0.0334611 -2.26023e-21)
(-2.0196 0.0316175 0)
(-2.03686 0.0298319 0)
(-2.05287 0.0280989 0)
(-2.06762 0.0264136 6.31515e-21)
(-2.08113 0.0247712 2.06271e-21)
(-2.0934 0.0231675 -2.01911e-21)
(-2.10445 0.0215985 0)
(-2.11427 0.0200608 -1.92946e-21)
(-2.12287 0.0185512 1.88092e-21)
(-2.13026 0.0170668 1.83248e-21)
(-2.13643 0.0156052 0)
(-2.14138 0.0141643 0)
(-2.14511 0.0127432 0)
(-2.14762 0.0113409 1.62757e-21)
(-2.14892 0.00995637 0)
(-2.149 0.00858922 -3.04181e-21)
(-2.14787 0.00723896 -4.39376e-21)
(-2.14553 0.00590521 2.81766e-21)
(-2.14198 0.00458764 0)
(-2.13722 0.0032864 1.29604e-21)
(-2.13125 0.00200107 0)
(-2.12407 0.000732996 2.34942e-21)
(-2.11569 -0.000517015 -1.11761e-21)
(-2.10609 -0.00174853 -1.05679e-21)
(-2.09529 -0.00296053 0)
(-2.08328 -0.00415207 -2.78523e-21)
(-2.07007 -0.00532275 1.7341e-21)
(-2.05564 -0.0064727 7.99905e-22)
(-2.04001 -0.00760161 0)
(-2.02318 -0.00870966 6.72359e-22)
(-2.00515 -0.00979707 1.83357e-21)
(-1.98593 -0.0108642 0)
(-1.96553 -0.0119116 9.67891e-22)
(-1.94395 -0.0129392 8.38696e-22)
(-1.9212 -0.0139471 7.09359e-22)
(-1.8973 -0.0149351 0)
(-1.87226 -0.0159033 0)
(-1.84608 -0.0168518 0)
(-1.81878 -0.0177806 -1.02064e-22)
(-1.79037 -0.01869 -2.63334e-23)
(-1.76086 -0.0195799 0)
(-1.73027 -0.0204503 1.9103e-22)
(-1.69861 -0.0213014 3.17707e-22)
(-1.66589 -0.022133 0)
(-1.63213 -0.0229455 5.81268e-22)
(-1.59734 -0.023739 1.38529e-21)
(-1.56153 -0.0245139 -8.28624e-22)
(-1.52473 -0.0252702 -9.24285e-22)
(-1.48694 -0.0260082 0)
(-1.44818 -0.0267284 0)
(-1.40847 -0.0274309 0)
(-1.36781 -0.028116 -1.42531e-21)
(-1.32624 -0.0287839 1.51269e-21)
(-1.28375 -0.0294345 3.2795e-21)
(-1.24037 -0.0300682 -1.76532e-21)
(-1.19612 -0.030685 1.8471e-21)
(-1.151 -0.0312852 1.98334e-21)
(-1.10504 -0.0318688 0)
(-1.05824 -0.032436 0)
(-1.01063 -0.0329867 -2.26762e-21)
(-0.962226 -0.033521 0)
(-0.913033 -0.0340387 0)
(-0.863071 -0.0345397 5.15309e-21)
(-0.812355 -0.0350236 0)
(-0.760901 -0.0354901 2.74793e-21)
(-0.708723 -0.0359385 -2.86634e-21)
(-0.655839 -0.0363679 0)
(-0.602266 -0.0367768 3.01005e-21)
(-0.548021 -0.0371634 0)
(-0.493125 -0.0375258 0)
(-0.437599 -0.0378612 -3.28023e-21)
(-0.381468 -0.0381662 6.68365e-21)
(-0.324761 -0.0384364 -3.42944e-21)
(-0.267505 -0.0386668 0)
(-0.209734 -0.038851 0)
(-0.151479 -0.0389828 3.60749e-21)
(-0.0927755 -0.0390583 0)
(-0.0336594 -0.0390778 3.73305e-21)
(0.0258268 -0.0390404 0)
(0.0856298 -0.038941 0)
(0.145693 -0.0387733 0)
(0.20595 -0.0385275 3.9808e-21)
(0.266326 -0.0381929 0)
(0.326721 -0.0377575 -4.07563e-21)
(0.387022 -0.037205 0)
(0.447077 -0.0365041 0)
(0.506768 -0.0356069 8.37599e-21)
(0.565806 -0.0345119 -8.44977e-21)
(0.62426 -0.0331102 0)
(0.680597 -0.0314442 0)
(0.737553 -0.0285181 0)
(0.783976 -0.0258035 2.61239e-20)
(0.844754 -0.0176886 0)
(0.854787 -0.00380843 -1.76155e-20)
(-0.00142955 0.00347524 4.47186e-25)
(0.0135464 -0.0325701 4.0013e-21)
(0.0432152 -0.0807516 0)
(0.0713988 -0.110837 -3.94073e-21)
(0.0937443 -0.119633 0)
(0.11029 -0.115649 0)
(0.122705 -0.105952 -1.23031e-24)
(0.132271 -0.0942073 1.9081e-21)
(0.139768 -0.0820004 1.89468e-21)
(0.145669 -0.0699602 1.8791e-21)
(0.150265 -0.0583345 0)
(0.153729 -0.0472334 0)
(0.156164 -0.0367218 -1.83983e-21)
(0.157634 -0.0268506 -3.65395e-21)
(0.158183 -0.0176553 3.62876e-21)
(0.157856 -0.00916715 0)
(0.1567 -0.00143736 3.57955e-21)
(0.154766 0.00545675 -1.7776e-21)
(0.152111 0.0114137 0)
(0.148797 0.0163033 3.5076e-21)
(0.144887 0.0199707 1.74222e-21)
(0.140445 0.0222453 -3.46022e-21)
(0.13552 0.0229604 -1.71876e-21)
(0.130139 0.0219929 0)
(0.124274 0.0193241 3.38935e-21)
(0.117819 0.0151554 3.36573e-21)
(0.11057 0.010214 0)
(0.102261 0.00573019 3.31842e-21)
(0.0926881 0.00284175 0)
(0.0818447 0.00196106 3.27203e-21)
(0.0699672 0.00255574 1.6255e-21)
(0.057196 0.0039771 0)
(0.0434451 0.00583442 0)
(0.0284841 0.00795975 0)
(0.0119808 0.0103541 0)
(-0.00646677 0.0131285 0)
(-0.0273206 0.0164557 0)
(-0.0510818 0.020528 3.11018e-21)
(-0.0782799 0.0255297 -4.64008e-21)
(-0.109475 0.0316261 0)
(-0.145257 0.0389826 0)
(-0.186195 0.0477929 0)
(-0.232757 0.058263 5.17118e-24)
(-0.285191 0.0705558 3.01053e-21)
(-0.343384 0.0847415 5.98307e-21)
(-0.406862 0.100615 -5.95108e-21)
(-0.474777 0.117598 -2.95725e-21)
(-0.545885 0.134924 2.94699e-21)
(-0.618621 0.151846 -4.57722e-24)
(-0.691357 0.167824 2.91248e-21)
(-0.762647 0.182566 0)
(-0.831399 0.195853 2.883e-21)
(-0.89681 0.207376 -2.79994e-24)
(-0.958476 0.216616 0)
(-1.01652 0.222773 0)
(-1.0716 0.225218 -2.82134e-21)
(-1.1246 0.223913 0)
(-1.17634 0.21938 0)
(-1.22731 0.212612 2.78366e-21)
(-1.27762 0.204557 5.53159e-21)
(-1.32715 0.19587 -2.74913e-21)
(-1.37573 0.186971 0)
(-1.4232 0.178124 2.7278e-21)
(-1.46943 0.169487 0)
(-1.51431 0.161151 2.71128e-21)
(-1.5578 0.153163 2.69542e-21)
(-1.59983 0.145541 -5.36968e-21)
(-1.64041 0.138286 -2.67251e-21)
(-1.6795 0.131389 0)
(-1.71712 0.124833 5.28622e-21)
(-1.75326 0.118595 0)
(-1.78794 0.112655 7.83169e-21)
(-1.82116 0.106988 5.1845e-21)
(-1.85294 0.101574 5.14589e-21)
(-1.8833 0.0963916 -5.10477e-21)
(-1.91224 0.0914254 7.59283e-21)
(-1.93977 0.0866599 0)
(-1.96593 0.0820819 0)
(-1.99072 0.0776794 -4.91404e-21)
(-2.01416 0.0734419 -7.29069e-21)
(-2.03627 0.0693591 0)
(-2.05705 0.0654216 2.37243e-21)
(-2.07654 0.0616203 0)
(-2.09473 0.0579462 -6.92315e-21)
(-2.11164 0.0543907 -1.49005e-24)
(-2.12729 0.0509451 1.18712e-24)
(-2.14168 0.0476012 4.40308e-21)
(-2.15483 0.0443508 0)
(-2.16673 0.0411861 -4.24884e-21)
(-2.17739 0.0380998 3.03219e-25)
(-2.18682 0.0350852 0)
(-2.19502 0.0321364 0)
(-2.202 0.0292481 0)
(-2.20774 0.0264154 3.81739e-21)
(-2.21226 0.0236347 0)
(-2.21555 0.0209025 0)
(-2.21761 0.0182161 0)
(-2.21844 0.0155731 0)
(-2.21804 0.0129707 0)
(-2.21641 0.0104066 3.22832e-21)
(-2.21354 0.0078806 0)
(-2.20945 0.00539174 3.00845e-21)
(-2.20413 0.00293855 2.89834e-21)
(-2.19757 0.000520366 -2.78647e-21)
(-2.18978 -0.00186292 0)
(-2.18076 -0.00421111 -2.55776e-21)
(-2.1705 -0.00652311 0)
(-2.159 -0.0087982 -2.323e-21)
(-2.14627 -0.0110359 2.20357e-21)
(-2.1323 -0.0132359 6.26967e-21)
(-2.11709 -0.0153974 0)
(-2.10066 -0.0175195 5.53747e-21)
(-2.08299 -0.0196013 1.73824e-21)
(-2.06409 -0.0216422 0)
(-2.04398 -0.0236414 2.95403e-21)
(-2.02264 -0.025598 2.70265e-21)
(-2.00011 -0.0275116 -3.66147e-21)
(-1.97637 -0.0293814 0)
(-1.95145 -0.0312072 -9.56719e-22)
(-1.92534 -0.0329888 -8.29001e-22)
(-1.89807 -0.034726 -2.13405e-21)
(-1.86965 -0.0364188 0)
(-1.84008 -0.0380669 0)
(-1.80939 -0.0396706 0)
(-1.77758 -0.0412298 -2.23731e-22)
(-1.74467 -0.0427448 0)
(-1.71067 -0.0442157 0)
(-1.67561 -0.0456427 -1.88833e-22)
(-1.63949 -0.0470261 -3.14043e-22)
(-1.60233 -0.0483661 0)
(-1.56415 -0.0496636 0)
(-1.52496 -0.050919 -1.36931e-21)
(-1.48479 -0.0521331 0)
(-1.44365 -0.0533064 1.85329e-21)
(-1.40155 -0.0544396 2.05417e-21)
(-1.35852 -0.0555334 0)
(-1.31457 -0.0565885 0)
(-1.26972 -0.0576052 -2.75266e-21)
(-1.22399 -0.0585842 -3.83633e-23)
(-1.17739 -0.059526 -3.84905e-23)
(-1.12995 -0.0604311 0)
(-1.08167 -0.0613003 -7.32129e-21)
(-1.03259 -0.0621341 0)
(-0.982714 -0.0629332 0)
(-0.932062 -0.0636981 0)
(-0.880653 -0.0644293 4.51241e-21)
(-0.828503 -0.0651274 0)
(-0.775629 -0.0657926 -9.73346e-21)
(-0.722049 -0.0664253 -5.0955e-21)
(-0.667778 -0.0670256 0)
(-0.612834 -0.0675935 -5.46333e-21)
(-0.557232 -0.0681285 0)
(-0.500991 -0.0686297 0)
(-0.444126 -0.0690958 -1.78722e-20)
(-0.386657 -0.0695248 1.22185e-20)
(-0.3286 -0.0699143 0)
(-0.269978 -0.0702609 1.28485e-20)
(-0.210809 -0.0705611 -6.61125e-21)
(-0.151116 -0.0708095 0)
(-0.0909213 -0.0710008 0)
(-0.0302436 -0.0711294 0)
(0.0308974 -0.0711909 -2.14265e-20)
(0.0924785 -0.0711819 0)
(0.154472 -0.0710989 -7.41453e-21)
(0.216845 -0.0709378 0)
(0.279559 -0.0706923 0)
(0.34257 -0.070353 0)
(0.405831 -0.0699075 0)
(0.469284 -0.0693399 0)
(0.53286 -0.0686291 0)
(0.59648 -0.0677499 -1.6197e-20)
(0.660055 -0.0666701 0)
(0.723506 -0.0653452 -8.29116e-21)
(0.786607 -0.0637395 2.50365e-20)
(0.849336 -0.0617008 0)
(0.910632 -0.059149 0)
(0.972104 -0.0552042 -1.70706e-20)
(1.02709 -0.0504559 -1.72372e-20)
(1.09017 -0.0408108 1.73139e-20)
(1.12398 -0.0225438 1.74555e-20)
(-0.000138034 -0.0137758 -6.04723e-21)
(0.0253518 -0.0908972 -6.0028e-21)
(0.0551467 -0.142323 -3.97201e-21)
(0.0748483 -0.155083 -1.97134e-21)
(0.0868578 -0.148 0)
(0.0946938 -0.134416 3.87621e-21)
(0.100315 -0.119366 -1.92314e-21)
(0.104548 -0.104367 0)
(0.10774 -0.0898396 -1.88984e-21)
(0.110048 -0.0758916 0)
(0.111545 -0.0625546 3.72353e-21)
(0.112269 -0.0498472 0)
(0.112242 -0.0377918 1.83399e-21)
(0.111475 -0.0264214 3.64223e-21)
(0.109976 -0.0157717 -3.61717e-21)
(0.107758 -0.00588312 0)
(0.10483 0.00317854 -3.56839e-21)
(0.101207 0.0113237 0)
(0.0969079 0.0184452 0)
(0.0919471 0.0244144 -3.49746e-21)
(0.0863346 0.0290875 0)
(0.080069 0.0323233 9.34162e-25)
(0.0731217 0.0340148 0)
(0.065412 0.0341479 0)
(0.0567814 0.032882 -1.1537e-24)
(0.0469991 0.0306274 -3.35589e-21)
(0.0357913 0.0280746 -3.33122e-21)
(0.0228961 0.0260772 -3.3093e-21)
(0.00826634 0.0253342 0)
(-0.00801149 0.0261032 -6.52663e-21)
(-0.0259605 0.0282941 0)
(-0.045741 0.0316687 -3.219e-21)
(-0.0676414 0.0360405 0)
(-0.092044 0.04135 0)
(-0.119381 0.0476699 3.15764e-21)
(-0.150106 0.0551514 0)
(-0.184652 0.063964 -3.11828e-21)
(-0.223393 0.074262 -4.34069e-24)
(-0.2666 0.086167 6.16525e-21)
(-0.314407 0.0997392 -6.12386e-21)
(-0.366782 0.114918 0)
(-0.423445 0.131505 0)
(-0.483837 0.149192 -3.00452e-21)
(-0.547142 0.167529 0)
(-0.612326 0.185934 -2.9794e-21)
(-0.678219 0.203806 2.96284e-21)
(-0.743685 0.2206 2.94658e-21)
(-0.807786 0.235897 0)
(-0.869837 0.249452 -2.91502e-21)
(-0.92934 0.261175 -2.8996e-21)