/*--------------------------------*- C++ -*----------------------------------*\
| =========                 |                                                 |
| \\      /  F ield         | OpenFOAM: The Open Source CFD Toolbox           |
|  \\    /   O peration     | Version:  2312                                  |
|   \\  /    A nd           | Website:  www.openfoam.com                      |
|    \\/     M anipulation  |                                                 |
\*---------------------------------------------------------------------------*/
FoamFile
{
    version     2.0;
    format      ascii;
    arch        "LSB;label=32;scalar=64";
    class       volSymmTensorField;
    location    "0.2";
    object      UPrime2Mean;
}
// * * * * * * * * * * * * * * * * * * * * * * * * * * * * * * * * * * * * * //

dimensions      [0 2 -2 0 0 0 0];

internalField   nonuniform List<symmTensor> 
12225
(
(0.0206758 0.0006873 0 0.00167553 0 0)
(0.0153955 0.000343893 0 0.000391302 0 0)
(0.0072721 0.000388889 0 8.94768e-05 0 0)
(0.00288086 0.000114757 0 1.85455e-05 0 0)
(0.00180468 6.03328e-06 0 2.19963e-06 0 0)
(0.00169082 -1.09503e-05 0 1.19874e-06 0 0)
(0.00171481 -1.00471e-05 0 7.24341e-07 0 0)
(0.00178526 -9.44304e-06 0 4.36242e-07 0 0)
(0.00187838 -1.07731e-05 0 3.12301e-07 0 0)
(0.00198269 -1.11673e-05 0 2.63036e-07 0 0)
(0.00210317 -1.06636e-05 0 1.81856e-07 0 0)
(0.00225152 -1.14026e-05 0 1.63512e-07 0 0)
(0.00244486 -1.60913e-05 0 2.27566e-07 0 0)
(0.00272188 -2.95098e-05 0 4.61756e-07 0 0)
(0.00312325 -4.68954e-05 0 8.52855e-07 0 0)
(0.00376935 -8.77668e-05 0 2.28905e-06 0 0)
(0.00523501 -0.000235922 0 1.31947e-05 0 0)
(0.00689095 -0.00038798 0 2.94058e-05 0 0)
(0.0160609 0.000477872 0 0.00207308 0 0)
(0.0103594 0.000652625 0 0.000718225 0 0)
(0.00825248 0.00048417 0 0.000271747 0 0)
(0.00614794 0.000381209 0 0.000150822 0 0)
(0.00457683 0.000216681 0 6.66376e-05 0 0)
(0.00365136 9.63671e-05 0 2.57672e-05 0 0)
(0.00315965 3.98474e-05 0 1.22093e-05 0 0)
(0.00293192 1.26768e-05 0 7.22447e-06 0 0)
(0.00286212 -2.20185e-06 0 5.36659e-06 0 0)
(0.00288572 -1.35544e-05 0 4.29525e-06 0 0)
(0.00297648 -2.45866e-05 0 3.48845e-06 0 0)
(0.00311806 -3.97483e-05 0 3.3053e-06 0 0)
(0.00334239 -6.24209e-05 0 3.80011e-06 0 0)
(0.00364828 -0.000100448 0 5.79518e-06 0 0)
(0.00410684 -0.000156729 0 9.19564e-06 0 0)
(0.00473783 -0.000279013 0 2.23388e-05 0 0)
(0.00592369 -0.00052192 0 5.68566e-05 0 0)
(0.00708112 -0.00131291 0 0.000320877 0 0)
(0.0127966 0.000149793 0 0.00253272 0 0)
(0.00724329 0.00042595 0 0.000873448 0 0)
(0.00612207 0.00039575 0 0.000435076 0 0)
(0.00553002 0.000371025 0 0.000304425 0 0)
(0.00506298 0.00031712 0 0.000197128 0 0)
(0.00461688 0.000229644 0 0.000124173 0 0)
(0.00421006 0.000159968 0 8.44931e-05 0 0)
(0.00391174 0.000109664 0 6.19411e-05 0 0)
(0.00372226 6.96633e-05 0 4.68289e-05 0 0)
(0.0036332 3.57368e-05 0 3.63389e-05 0 0)
(0.00363707 3.99018e-06 0 2.95521e-05 0 0)
(0.00372189 -2.99624e-05 0 2.53132e-05 0 0)
(0.00388508 -7.19512e-05 0 2.3642e-05 0 0)
(0.00413025 -0.000129912 0 2.5089e-05 0 0)
(0.0044988 -0.00022126 0 3.22881e-05 0 0)
(0.00501336 -0.000392141 0 5.79317e-05 0 0)
(0.0057222 -0.000738642 0 0.00014273 0 0)
(0.00641691 -0.00140956 0 0.000439338 0 0)
(0.0127506 1.28192e-05 0 0.00277457 0 0)
(0.0064276 0.000384778 0 0.00117953 0 0)
(0.00519594 0.000274179 0 0.000608965 0 0)
(0.00457687 0.000283694 0 0.000434441 0 0)
(0.00432946 0.00027523 0 0.000325214 0 0)
(0.00423048 0.000246628 0 0.000241548 0 0)
(0.00415109 0.000212285 0 0.000185145 0 0)
(0.00406391 0.000177339 0 0.000147253 0 0)
(0.0039773 0.000141124 0 0.000120221 0 0)
(0.00391442 0.000101595 0 0.000100501 0 0)
(0.00389749 5.83495e-05 0 8.62909e-05 0 0)
(0.00394741 9.28876e-06 0 7.65781e-05 0 0)
(0.00407165 -4.84356e-05 0 7.14042e-05 0 0)
(0.00427905 -0.000123951 0 7.19568e-05 0 0)
(0.0045711 -0.000237643 0 8.17571e-05 0 0)
(0.00494634 -0.000432327 0 0.000119736 0 0)
(0.00537508 -0.000771392 0 0.000226927 0 0)
(0.00565614 -0.00131398 0 0.000516175 0 0)
(0.010658 0.000103419 0 0.00309317 0 0)
(0.00560621 0.000278452 0 0.00146612 0 0)
(0.00469133 0.000227696 0 0.000787384 0 0)
(0.00400928 0.000204994 0 0.000558258 0 0)
(0.00374798 0.000200677 0 0.000434656 0 0)
(0.00366721 0.00018989 0 0.000348774 0 0)
(0.00366103 0.000173791 0 0.000286745 0 0)
(0.00367571 0.000155768 0 0.000242247 0 0)
(0.00369005 0.0001365 0 0.000209285 0 0)
(0.00370796 0.000110334 0 0.000183684 0 0)
(0.00374511 7.48467e-05 0 0.000163868 0 0)
(0.00381884 2.77227e-05 0 0.000149057 0 0)
(0.00394064 -3.31784e-05 0 0.000140315 0 0)
(0.00411575 -0.000115648 0 0.000139752 0 0)
(0.00434392 -0.000235571 0 0.000152963 0 0)
(0.00459881 -0.000423838 0 0.000196315 0 0)
(0.00483348 -0.000706688 0 0.000300007 0 0)
(0.00485751 -0.00110136 0 0.000536664 0 0)
(0.0125591 -7.18284e-05 0 0.00354298 0 0)
(0.00603068 0.00019722 0 0.00174105 0 0)
(0.00462117 0.000188879 0 0.00104161 0 0)
(0.0038007 0.000176754 0 0.000736845 0 0)
(0.00339211 0.000148573 0 0.000565682 0 0)
(0.00329689 0.000123065 0 0.000461759 0 0)
(0.00327001 0.000101723 0 0.000389241 0 0)
(0.00327652 8.2993e-05 0 0.000336976 0 0)
(0.00329863 6.46576e-05 0 0.000298068 0 0)
(0.00333221 4.0129e-05 0 0.000267946 0 0)
(0.00338265 4.9865e-06 0 0.000244382 0 0)
(0.00346062 -4.28621e-05 0 0.000226956 0 0)
(0.00357103 -0.000104799 0 0.000216838 0 0)
(0.00371353 -0.000187441 0 0.000216545 0 0)
(0.00388088 -0.000301859 0 0.000231623 0 0)
(0.0040418 -0.000468053 0 0.000276036 0 0)
(0.00414989 -0.000691052 0 0.000371913 0 0)
(0.00408235 -0.000956506 0 0.00054883 0 0)
(0.0124337 0.000179297 0 0.00390519 0 0)
(0.00573782 0.000201408 0 0.00210131 0 0)
(0.00438421 0.000168017 0 0.00127422 0 0)
(0.00361935 0.000157606 0 0.000919743 0 0)
(0.00323815 0.00012609 0 0.00071728 0 0)
(0.00307308 6.93905e-05 0 0.000577296 0 0)
(0.00303796 3.49051e-05 0 0.000488493 0 0)
(0.00303688 1.36404e-05 0 0.000429449 0 0)
(0.00305909 -5.56967e-06 0 0.000386445 0 0)
(0.00309837 -3.16295e-05 0 0.000353767 0 0)
(0.00315222 -6.94708e-05 0 0.000328066 0 0)
(0.00322319 -0.000120193 0 0.000309276 0 0)
(0.00331144 -0.00018487 0 0.000298085 0 0)
(0.00341274 -0.000267776 0 0.000297585 0 0)
(0.00351802 -0.000375972 0 0.000312141 0 0)
(0.00360018 -0.000519695 0 0.000352865 0 0)
(0.00362761 -0.000693928 0 0.000431469 0 0)
(0.0035263 -0.000877968 0 0.000555413 0 0)
(0.0149254 0.000277405 0 0.00401507 0 0)
(0.00636065 -2.05185e-05 0 0.0023122 0 0)
(0.00453531 1.36718e-05 0 0.00143319 0 0)
(0.00372601 5.01763e-05 0 0.00104396 0 0)
(0.00330993 3.60726e-05 0 0.000829832 0 0)
(0.0030958 3.10554e-06 0 0.00068608 0 0)
(0.00298118 -3.22215e-05 0 0.000583919 0 0)
(0.00295129 -5.54268e-05 0 0.000517229 0 0)
(0.00296385 -7.36049e-05 0 0.000471351 0 0)
(0.00300044 -9.82771e-05 0 0.000437415 0 0)
(0.00305072 -0.00013543 0 0.000410751 0 0)
(0.00310962 -0.000185723 0 0.000391313 0 0)
(0.00317325 -0.000249391 0 0.00037958 0 0)
(0.00323585 -0.000328738 0 0.00037867 0 0)
(0.00328964 -0.000427408 0 0.000391673 0 0)
(0.00331468 -0.00054943 0 0.00042647 0 0)
(0.00329292 -0.000686315 0 0.000488647 0 0)
(0.0031793 -0.000821033 0 0.000577299 0 0)
(0.0146261 0.000490069 0 0.0045593 0 0)
(0.00708403 -6.31032e-05 0 0.00269132 0 0)
(0.0050191 -7.31865e-05 0 0.00162702 0 0)
(0.00405083 -3.19199e-05 0 0.00117194 0 0)
(0.00356166 -4.95841e-05 0 0.00092704 0 0)
(0.00328759 -7.76804e-05 0 0.00077473 0 0)
(0.0030987 -0.000103471 0 0.000669989 0 0)
(0.00300532 -0.000122788 0 0.000599666 0 0)
(0.00298188 -0.00013847 0 0.00055269 0 0)
(0.00299771 -0.000160446 0 0.000518877 0 0)
(0.0030318 -0.00019418 0 0.000492452 0 0)
(0.00307061 -0.000240443 0 0.000472979 0 0)
(0.00310587 -0.000298999 0 0.000460975 0 0)
(0.00313148 -0.000370948 0 0.000459172 0 0)
(0.00314217 -0.000457551 0 0.000469748 0 0)
(0.00312556 -0.000559463 0 0.000497904 0 0)
(0.00307328 -0.000667937 0 0.000546085 0 0)
(0.00295788 -0.000770381 0 0.000609188 0 0)
(0.0151767 -0.000142087 0 0.00480793 0 0)
(0.00684824 -0.000256908 0 0.00286612 0 0)
(0.00482238 -0.000179518 0 0.00177779 0 0)
(0.00394552 -0.000129061 0 0.00129547 0 0)
(0.00353964 -0.000140085 0 0.00103259 0 0)
(0.00331195 -0.000160091 0 0.000866561 0 0)
(0.00315149 -0.00017302 0 0.000754771 0 0)
(0.00305485 -0.000184618 0 0.000681761 0 0)
(0.00302003 -0.00019799 0 0.00063429 0 0)
(0.00302361 -0.000217754 0 0.000600749 0 0)
(0.00304348 -0.00024689 0 0.000574868 0 0)
(0.00306284 -0.000286409 0 0.000555304 0 0)
(0.00307176 -0.000336596 0 0.000542606 0 0)
(0.00306548 -0.000398424 0 0.000539096 0 0)
(0.00304209 -0.000472007 0 0.000546511 0 0)
(0.00299608 -0.000556485 0 0.000568164 0 0)
(0.0029258 -0.000643726 0 0.00060497 0 0)
(0.0028137 -0.000724745 0 0.00065014 0 0)
(0.0147055 0.000319689 0 0.00550549 0 0)
(0.00692676 -0.000185531 0 0.00333252 0 0)
(0.00480474 -0.000234312 0 0.00202198 0 0)
(0.00390423 -0.000210541 0 0.00148374 0 0)
(0.00351832 -0.000218784 0 0.00119204 0 0)
(0.00331335 -0.000230627 0 0.000998665 0 0)
(0.00317787 -0.000237527 0 0.000866785 0 0)
(0.00309722 -0.000245438 0 0.000781669 0 0)
(0.00306502 -0.00025785 0 0.000727591 0 0)
(0.0030619 -0.000275372 0 0.000691232 0 0)
(0.00306819 -0.000298455 0 0.000663963 0 0)
(0.00306856 -0.00032849 0 0.000642816 0 0)
(0.00305409 -0.000367357 0 0.000627997 0 0)
(0.00302218 -0.000417031 0 0.000621519 0 0)
(0.00297394 -0.000477475 0 0.000624957 0 0)
(0.00290894 -0.000547347 0 0.000640497 0 0)
(0.00282965 -0.000619073 0 0.000668422 0 0)
(0.00272349 -0.00068602 0 0.000701297 0 0)
(0.0159076 -0.000259542 0 0.00587729 0 0)
(0.00745399 -0.000312503 0 0.00383768 0 0)
(0.00523693 -0.000326585 0 0.00233625 0 0)
(0.00423824 -0.000308595 0 0.00170769 0 0)
(0.0037558 -0.000300923 0 0.00136936 0 0)
(0.00348327 -0.000298136 0 0.00114263 0 0)
(0.00330909 -0.0002979 0 0.000987217 0 0)
(0.00320507 -0.000303576 0 0.000886719 0 0)
(0.00315103 -0.000314882 0 0.000824053 0 0)
(0.00312424 -0.000328947 0 0.000783097 0 0)
(0.00310552 -0.000344785 0 0.00075292 0 0)
(0.00308116 -0.000364491 0 0.000729035 0 0)
(0.00304371 -0.000391685 0 0.000711138 0 0)
(0.00299176 -0.000429755 0 0.000701145 0 0)
(0.00292741 -0.000479009 0 0.000700553 0 0)
(0.00285222 -0.000538009 0 0.000711023 0 0)
(0.00276997 -0.000599292 0 0.000732479 0 0)
(0.00266985 -0.00065743 0 0.000757177 0 0)
(0.0172055 -0.000537044 0 0.00612863 0 0)
(0.00900513 -0.000560539 0 0.00402856 0 0)
(0.00636988 -0.000496079 0 0.00254713 0 0)
(0.00497865 -0.000416697 0 0.00189552 0 0)
(0.00426666 -0.000368582 0 0.00153326 0 0)
(0.00385384 -0.000345759 0 0.00128509 0 0)
(0.00358507 -0.000340187 0 0.00111363 0 0)
(0.00341039 -0.000346977 0 0.00100226 0 0)
(0.0032992 -0.000359288 0 0.00093204 0 0)
(0.00322452 -0.000371257 0 0.000885666 0 0)
(0.00316581 -0.000381235 0 0.000851361 0 0)
(0.00310906 -0.000392229 0 0.000823828 0 0)
(0.00304656 -0.000409508 0 0.000802245 0 0)
(0.00297638 -0.000437884 0 0.000788367 0 0)
(0.00289964 -0.000478222 0 0.000783581 0 0)
(0.00281792 -0.000529235 0 0.000789365 0 0)
(0.0027343 -0.000583136 0 0.000805353 0 0)
(0.00263885 -0.000635286 0 0.000823528 0 0)
(0.0186124 -0.000344607 0 0.00700214 0 0)
(0.0102864 -0.000353203 0 0.00475328 0 0)
(0.00722991 -0.000313547 0 0.00301673 0 0)
(0.00553703 -0.000288102 0 0.00221619 0 0)
(0.0046572 -0.000282657 0 0.00177439 0 0)
(0.00413968 -0.000286437 0 0.00148534 0 0)
(0.00378633 -0.000303587 0 0.00129032 0 0)
(0.00353913 -0.000331442 0 0.00116245 0 0)
(0.00336855 -0.000360199 0 0.00107943 0 0)
(0.00324765 -0.00038168 0 0.00102266 0 0)
(0.00315473 -0.000394233 0 0.000980032 0 0)
(0.00307436 -0.000402673 0 0.0009457 0 0)
(0.00299716 -0.000414814 0 0.000918338 0 0)
(0.00291938 -0.00043733 0 0.000899236 0 0)
(0.00283975 -0.000471775 0 0.000889284 0 0)
(0.00275886 -0.000517287 0 0.000889602 0 0)
(0.00267776 -0.00056555 0 0.000899458 0 0)
(0.00258821 -0.000612813 0 0.000910508 0 0)
(0.0188762 9.8866e-05 0 0.00850746 0 0)
(0.0112148 -0.000388757 0 0.00625422 0 0)
(0.00808398 -0.000288749 0 0.0039987 0 0)
(0.00610459 -0.00026369 0 0.00287885 0 0)
(0.00503117 -0.000248219 0 0.00224696 0 0)
(0.00438294 -0.000237354 0 0.0018467 0 0)
(0.00391959 -0.000256174 0 0.00158673 0 0)
(0.00358169 -0.000301051 0 0.00141657 0 0)
(0.00334572 -0.000350086 0 0.00130244 0 0)
(0.0031826 -0.000386653 0 0.0012217 0 0)
(0.00306485 -0.000406949 0 0.00116053 0 0)
(0.00297186 -0.000417131 0 0.00111178 0 0)
(0.00289088 -0.00042724 0 0.00107291 0 0)
(0.00281568 -0.000446092 0 0.00104424 0 0)
(0.00274188 -0.000475827 0 0.00102562 0 0)
(0.00266777 -0.000516004 0 0.00101746 0 0)
(0.00259191 -0.000557634 0 0.00101812 0 0)
(0.00250647 -0.000597963 0 0.00101932 0 0)
(0.019039 -0.000702144 0 0.00920169 0 0)
(0.0123474 -0.000894449 0 0.00729457 0 0)
(0.00922609 -0.000859863 0 0.00478447 0 0)
(0.00690738 -0.000790753 0 0.00350041 0 0)
(0.00556883 -0.000676426 0 0.00276439 0 0)
(0.00476956 -0.000559605 0 0.00228844 0 0)
(0.00422025 -0.000499242 0 0.00196855 0 0)
(0.00382527 -0.000497726 0 0.00174639 0 0)
(0.00353876 -0.000519416 0 0.00158623 0 0)
(0.00332315 -0.000534649 0 0.00146698 0 0)
(0.00315541 -0.000534267 0 0.00137497 0 0)
(0.00302387 -0.000524782 0 0.00130196 0 0)
(0.00291915 -0.000517084 0 0.00124389 0 0)
(0.00283296 -0.000520052 0 0.00119937 0 0)
(0.00275628 -0.000534891 0 0.00116655 0 0)
(0.00268184 -0.000560732 0 0.00114493 0 0)
(0.00260476 -0.000587026 0 0.00113137 0 0)
(0.00251354 -0.000612743 0 0.00111897 0 0)
(0.0210338 -0.000543106 0 0.0105623 0 0)
(0.0145233 -0.00126601 0 0.00877663 0 0)
(0.0109747 -0.00115145 0 0.00583781 0 0)
(0.00825726 -0.00106618 0 0.00416252 0 0)
(0.00670102 -0.000931644 0 0.0031779 0 0)
(0.00577295 -0.000790111 0 0.00257139 0 0)
(0.00512902 -0.000699673 0 0.00217855 0 0)
(0.00463978 -0.000662794 0 0.00191039 0 0)
(0.00424684 -0.000649663 0 0.00171771 0 0)
(0.00392209 -0.000636106 0 0.0015742 0 0)
(0.00365801 -0.000616183 0 0.00146529 0 0)
(0.00345302 -0.000595868 0 0.00138193 0 0)
(0.00330041 -0.000582384 0 0.00131776 0 0)
(0.00318604 -0.000579416 0 0.00126814 0 0)
(0.00309196 -0.000584047 0 0.00122852 0 0)
(0.00300269 -0.000594427 0 0.00119715 0 0)
(0.00291079 -0.000600006 0 0.00117005 0 0)
(0.00279983 -0.0006047 0 0.00114302 0 0)
(0.020238 0.000156983 0 0.0113726 0 0)
(0.0157627 -0.000173535 0 0.0102385 0 0)
(0.0127186 -0.000342484 0 0.00668263 0 0)
(0.00989168 -0.000585355 0 0.0045123 0 0)
(0.00813618 -0.000644052 0 0.00333681 0 0)
(0.00707243 -0.000581186 0 0.00266948 0 0)
(0.00633333 -0.00049503 0 0.00225051 0 0)
(0.0057632 -0.000437983 0 0.00195689 0 0)
(0.00530427 -0.000418429 0 0.00173612 0 0)
(0.0049269 -0.000422921 0 0.00156808 0 0)
(0.00461621 -0.000438145 0 0.00144308 0 0)
(0.0043635 -0.000456471 0 0.00135193 0 0)
(0.00415821 -0.000473413 0 0.00128469 0 0)
(0.00398614 -0.000486001 0 0.0012325 0 0)
(0.00383247 -0.000490468 0 0.00118771 0 0)
(0.00368551 -0.00048825 0 0.00114698 0 0)
(0.00354121 -0.000474438 0 0.00110759 0 0)
(0.00338839 -0.000459147 0 0.0010653 0 0)
(0.0196258 -0.000258428 0 0.0101335 0 0)
(0.0153561 -0.000548711 0 0.00842686 0 0)
(0.0122125 -0.000382605 0 0.00565607 0 0)
(0.00949113 -0.000275667 0 0.00402306 0 0)
(0.00781495 -0.000213352 0 0.00306316 0 0)
(0.00668964 -0.000169227 0 0.00247115 0 0)
(0.0059168 -0.000147701 0 0.00208023 0 0)
(0.00538942 -0.000152986 0 0.00179869 0 0)
(0.00502212 -0.000179073 0 0.00158544 0 0)
(0.00475299 -0.000214547 0 0.00142301 0 0)
(0.00453638 -0.00025009 0 0.0013012 0 0)
(0.00434324 -0.000279798 0 0.0012107 0 0)
(0.00415908 -0.00030006 0 0.00114233 0 0)
(0.00397885 -0.000309459 0 0.0010882 0 0)
(0.00380138 -0.000307081 0 0.00104171 0 0)
(0.00362755 -0.00029625 0 0.000999564 0 0)
(0.00346094 -0.000275569 0 0.000960247 0 0)
(0.00329813 -0.000254279 0 0.000918418 0 0)
(0.0179682 4.39013e-06 0 0.0108497 0 0)
(0.0131197 0.00027978 0 0.00890281 0 0)
(0.0107243 -0.000114854 0 0.00544974 0 0)
(0.00851902 -0.000284919 0 0.00372315 0 0)
(0.00701835 -0.000235295 0 0.00286691 0 0)
(0.00602175 -0.000133493 0 0.00236129 0 0)
(0.00535784 -6.619e-05 0 0.00200825 0 0)
(0.00489461 -5.13406e-05 0 0.0017379 0 0)
(0.00454784 -7.00442e-05 0 0.00152877 0 0)
(0.00427178 -9.83893e-05 0 0.00137025 0 0)
(0.00403889 -0.000121088 0 0.00125132 0 0)
(0.0038329 -0.000132258 0 0.00116069 0 0)
(0.00364568 -0.000131803 0 0.00108879 0 0)
(0.0034727 -0.000122579 0 0.00102885 0 0)
(0.00331158 -0.000107226 0 0.000976023 0 0)
(0.00316003 -9.00012e-05 0 0.000928392 0 0)
(0.00302031 -6.99895e-05 0 0.000885487 0 0)
(0.00288673 -5.43697e-05 0 0.000841694 0 0)
(0.0201002 0.000783605 0 0.0100905 0 0)
(0.0137294 0.000642723 0 0.00835792 0 0)
(0.0104603 0.000364327 0 0.00525223 0 0)
(0.00802872 0.000257888 0 0.00352597 0 0)
(0.00645095 0.00022566 0 0.00258056 0 0)
(0.00546835 0.000206708 0 0.00202344 0 0)
(0.00486251 0.000184717 0 0.00167567 0 0)
(0.00445049 0.000152066 0 0.00145015 0 0)
(0.0041249 0.000112625 0 0.00129791 0 0)
(0.00384193 7.37907e-05 0 0.00118948 0 0)
(0.00358949 4.16434e-05 0 0.00110744 0 0)
(0.00336906 1.983e-05 0 0.00104141 0 0)
(0.00318386 9.33082e-06 0 0.000985016 0 0)
(0.00303218 8.57349e-06 0 0.000934675 0 0)
(0.00290771 1.53002e-05 0 0.000888141 0 0)
(0.00280281 2.58225e-05 0 0.000845215 0 0)
(0.00271254 3.95842e-05 0 0.000806463 0 0)
(0.00262879 5.03928e-05 0 0.000766732 0 0)
(0.0212083 6.69582e-05 0 0.00903808 0 0)
(0.0143524 0.000302673 0 0.00689564 0 0)
(0.0106151 0.000304616 0 0.00423101 0 0)
(0.00777273 0.000254861 0 0.00293021 0 0)
(0.00602454 0.000208859 0 0.00220089 0 0)
(0.00502691 0.000165418 0 0.00173604 0 0)
(0.00444139 0.000130057 0 0.00143425 0 0)
(0.00404012 0.000105478 0 0.00124122 0 0)
(0.0037192 8.76753e-05 0 0.00111674 0 0)
(0.00344321 7.06729e-05 0 0.00103133 0 0)
(0.00320301 5.15723e-05 0 0.000967055 0 0)
(0.0030013 3.21091e-05 0 0.000914654 0 0)
(0.00284084 1.654e-05 0 0.000869307 0 0)
(0.0027179 8.26937e-06 0 0.000828464 0 0)
(0.0026237 8.66515e-06 0 0.000790349 0 0)
(0.00254854 1.60039e-05 0 0.000754969 0 0)
(0.00248573 2.89763e-05 0 0.000722704 0 0)
(0.0024269 4.16359e-05 0 0.000688873 0 0)
(0.0176791 0.000535301 0 0.00802776 0 0)
(0.0107219 0.000195624 0 0.00603532 0 0)
(0.00787937 0.000127915 0 0.00361899 0 0)
(0.00597548 0.000148698 0 0.00242988 0 0)
(0.00489461 0.000137063 0 0.00181354 0 0)
(0.00429647 9.69534e-05 0 0.00144874 0 0)
(0.0039142 6.43414e-05 0 0.00121949 0 0)
(0.00360319 5.15239e-05 0 0.00107345 0 0)
(0.00332187 4.7781e-05 0 0.000976328 0 0)
(0.00307505 3.79598e-05 0 0.000906689 0 0)
(0.00286613 1.78915e-05 0 0.000852186 0 0)
(0.0026969 -7.8183e-06 0 0.00080612 0 0)
(0.00256634 -3.08357e-05 0 0.000765536 0 0)
(0.0024682 -4.45413e-05 0 0.00072893 0 0)
(0.00239375 -4.6339e-05 0 0.000694952 0 0)
(0.00233476 -3.81414e-05 0 0.000663708 0 0)
(0.00228634 -2.26859e-05 0 0.000635217 0 0)
(0.00224191 -6.40043e-06 0 0.000605063 0 0)
(0.0179989 3.33051e-05 0 0.00733549 0 0)
(0.0106961 4.45618e-05 0 0.00456639 0 0)
(0.00762674 2.01626e-05 0 0.00262779 0 0)
(0.00574423 3.38717e-05 0 0.0018496 0 0)
(0.00478829 2.50712e-05 0 0.00145614 0 0)
(0.00429518 -3.96048e-06 0 0.00121333 0 0)
(0.00397129 -1.69251e-05 0 0.00104762 0 0)
(0.00368692 -8.37138e-06 0 0.000927164 0 0)
(0.0034216 5.95394e-06 0 0.000838494 0 0)
(0.00319619 4.77421e-06 0 0.000773198 0 0)
(0.00300374 -1.60347e-05 0 0.000722323 0 0)
(0.00284154 -4.75001e-05 0 0.000679403 0 0)
(0.00270804 -7.73347e-05 0 0.000642266 0 0)
(0.00259929 -9.67463e-05 0 0.000609402 0 0)
(0.00251031 -0.000102465 0 0.000579451 0 0)
(0.00243618 -9.66114e-05 0 0.000552392 0 0)
(0.00237497 -8.26776e-05 0 0.000527861 0 0)
(0.00232071 -6.69277e-05 0 0.000501453 0 0)
(0.0164599 -3.42825e-05 0 0.00646643 0 0)
(0.00903653 -4.539e-05 0 0.00403377 0 0)
(0.00643969 -8.07014e-05 0 0.00230287 0 0)
(0.00506983 -8.97114e-05 0 0.00158818 0 0)
(0.00441758 -0.000116705 0 0.00125736 0 0)
(0.00407528 -0.000135605 0 0.00105693 0 0)
(0.00381856 -0.00011593 0 0.000901884 0 0)
(0.0036053 -8.59941e-05 0 0.000786775 0 0)
(0.00344789 -6.52282e-05 0 0.000703232 0 0)
(0.00331921 -6.22998e-05 0 0.000641422 0 0)
(0.00320268 -8.11052e-05 0 0.000591749 0 0)
(0.00309103 -0.000112199 0 0.000549068 0 0)
(0.00298419 -0.000142613 0 0.000512513 0 0)
(0.00288338 -0.000163322 0 0.000480815 0 0)
(0.00279057 -0.000170559 0 0.0004524 0 0)
(0.00270681 -0.000166735 0 0.000427464 0 0)
(0.00263532 -0.000155195 0 0.00040509 0 0)
(0.00257136 -0.000141399 0 0.000381262 0 0)
(0.0169827 -0.000391324 0 0.00561624 0 0)
(0.00914067 -0.000309965 0 0.00321422 0 0)
(0.00647703 -0.000255597 0 0.00181784 0 0)
(0.00517198 -0.000238549 0 0.0012836 0 0)
(0.00454644 -0.000245717 0 0.00100354 0 0)
(0.00413356 -0.000238907 0 0.000823445 0 0)
(0.00385153 -0.000227998 0 0.000706479 0 0)
(0.00370499 -0.000210587 0 0.000614248 0 0)
(0.00362563 -0.000191338 0 0.000543009 0 0)
(0.00358031 -0.000187593 0 0.000487921 0 0)
(0.00354278 -0.000202029 0 0.000442023 0 0)
(0.00349405 -0.00022671 0 0.000402457 0 0)
(0.0034276 -0.000250408 0 0.000368408 0 0)
(0.00334425 -0.000265684 0 0.000339151 0 0)
(0.00325006 -0.000268511 0 0.000312966 0 0)
(0.00315492 -0.000262299 0 0.000290549 0 0)
(0.00306843 -0.000249742 0 0.000270364 0 0)
(0.00298849 -0.000235226 0 0.000250144 0 0)
(0.0171542 -0.000104021 0 0.00446654 0 0)
(0.00912326 -0.000357846 0 0.00229239 0 0)
(0.00672105 -0.000323473 0 0.00132707 0 0)
(0.00551885 -0.0003105 0 0.000981067 0 0)
(0.00488706 -0.000316076 0 0.000775435 0 0)
(0.0044958 -0.000346924 0 0.000631843 0 0)
(0.00426861 -0.000367668 0 0.00052198 0 0)
(0.00414172 -0.000353974 0 0.000430447 0 0)
(0.00407757 -0.000329208 0 0.000357748 0 0)
(0.00404266 -0.000312448 0 0.000301257 0 0)
(0.00400876 -0.000306298 0 0.000257393 0 0)
(0.00395154 -0.000306541 0 0.000223823 0 0)
(0.00385908 -0.000305976 0 0.000197381 0 0)
(0.00373234 -0.000300045 0 0.000176029 0 0)
(0.00358232 -0.000286444 0 0.000157963 0 0)
(0.00343024 -0.000268424 0 0.000143091 0 0)
(0.00328885 -0.000247711 0 0.000129951 0 0)
(0.00316104 -0.000227873 0 0.00011782 0 0)
(0.0156014 -0.000285945 0 0.00368527 0 0)
(0.00944168 -0.000434651 0 0.00170232 0 0)
(0.00741254 -0.000405179 0 0.000954436 0 0)
(0.00618065 -0.000418816 0 0.000718523 0 0)
(0.00546248 -0.000471534 0 0.00055222 0 0)
(0.00506556 -0.000503192 0 0.000434647 0 0)
(0.00480464 -0.00048227 0 0.000330559 0 0)
(0.00457003 -0.000420276 0 0.000246895 0 0)
(0.00433743 -0.000352103 0 0.000187858 0 0)
(0.00410708 -0.000301283 0 0.000147769 0 0)
(0.00389696 -0.000269021 0 0.000118376 0 0)
(0.00369221 -0.000244007 0 9.68747e-05 0 0)
(0.00348539 -0.000220239 0 8.08935e-05 0 0)
(0.0032797 -0.000195429 0 6.83892e-05 0 0)
(0.0030892 -0.000170302 0 5.80771e-05 0 0)
(0.00292777 -0.000148047 0 4.96171e-05 0 0)
(0.00279887 -0.000130222 0 4.21834e-05 0 0)
(0.00269545 -0.000117391 0 3.58719e-05 0 0)
(0.0166352 -0.000857823 0 0.00275367 0 0)
(0.0106543 -0.000727832 0 0.00106734 0 0)
(0.0088071 -0.000516454 0 0.00054847 0 0)
(0.00760637 -0.00045767 0 0.000409682 0 0)
(0.00659146 -0.000513461 0 0.000281832 0 0)
(0.00569273 -0.000522095 0 0.00020808 0 0)
(0.00486382 -0.000406984 0 0.000132079 0 0)
(0.00422461 -0.000276328 0 7.32274e-05 0 0)
(0.00369936 -0.000186032 0 4.10646e-05 0 0)
(0.00328592 -0.000134602 0 2.45112e-05 0 0)
(0.00296022 -9.62501e-05 0 1.48712e-05 0 0)
(0.00271055 -7.00002e-05 0 9.40254e-06 0 0)
(0.00251186 -5.35883e-05 0 6.59924e-06 0 0)
(0.00235646 -4.36998e-05 0 4.98703e-06 0 0)
(0.00223566 -3.73559e-05 0 3.94165e-06 0 0)
(0.00214255 -3.33834e-05 0 3.19564e-06 0 0)
(0.00206677 -3.03913e-05 0 2.57883e-06 0 0)
(0.0020027 -2.81342e-05 0 2.11622e-06 0 0)
(0.0183483 -0.00107112 0 0.00200404 0 0)
(0.0143036 -0.000449809 0 0.000659796 0 0)
(0.012766 -0.000257567 0 0.000316958 0 0)
(0.0118332 -0.000318878 0 0.000144676 0 0)
(0.00680729 -0.000488716 0 7.36903e-05 0 0)
(0.00352638 -0.00023745 0 3.3908e-05 0 0)
(0.00229896 -6.63815e-05 0 7.86065e-06 0 0)
(0.00189815 -6.97836e-06 0 2.03258e-06 0 0)
(0.00174768 4.51477e-06 0 1.84633e-06 0 0)
(0.00166659 3.84174e-06 0 1.31117e-06 0 0)
(0.00160933 3.475e-06 0 1.47081e-06 0 0)
(0.00156213 1.68173e-06 0 1.25707e-06 0 0)
(0.00152253 3.11724e-07 0 8.92672e-07 0 0)
(0.00148892 -9.08728e-08 0 6.07583e-07 0 0)
(0.00145897 -1.61e-07 0 3.81976e-07 0 0)
(0.00143103 -7.12779e-07 0 2.10482e-07 0 0)
(0.00140281 -1.08777e-06 0 1.5029e-07 0 0)
(0.00137298 -1.53605e-06 0 1.32027e-07 0 0)
(7.15555e-07 -4.01836e-06 2.24342e-24 2.34965e-05 -4.78754e-24 4.1138e-39)
(2.00189e-05 -2.35203e-05 -6.66259e-24 2.80966e-05 4.71412e-24 4.05562e-39)
(4.63149e-05 -1.24046e-05 0 3.73035e-06 0 0)
(3.52608e-05 1.24795e-05 0 6.26984e-06 0 0)
(1.59451e-05 1.39688e-05 0 2.2886e-05 0 0)
(8.3151e-06 -8.37971e-07 2.40287e-23 3.20705e-05 -4.56074e-24 3.81968e-39)
(1.80974e-05 -1.5691e-05 0 3.0606e-05 0 0)
(3.8546e-05 -2.48355e-05 0 2.3359e-05 0 0)
(6.2196e-05 -2.67727e-05 0 1.4886e-05 0 0)
(8.25758e-05 -2.29426e-05 0 7.72042e-06 0 0)
(9.59669e-05 -1.5955e-05 -4.41653e-23 2.94809e-06 4.08834e-24 3.53617e-39)
(0.000101183 -8.31148e-06 0 7.20774e-07 0 0)
(0.000100025 -2.25884e-06 0 8.76853e-07 0 0)
(9.66832e-05 1.30389e-07 0 3.24165e-06 0 0)
(9.92084e-05 -3.0229e-06 0 7.90589e-06 0 0)
(0.000117196 -1.45717e-05 -6.18625e-23 1.51222e-05 3.53853e-24 3.26876e-39)
(0.000167424 -3.76761e-05 0 2.46091e-05 0 0)
(0.000271036 -7.40416e-05 0 3.53696e-05 0 0)
(0.000451596 -0.000123185 0 4.59246e-05 0 0)
(0.000732446 -0.000182031 0 5.45957e-05 0 0)
(0.00113223 -0.000244433 0 5.96523e-05 0 0)
(0.00165915 -0.000300645 0 5.94787e-05 0 0)
(0.00230363 -0.000337035 0 5.29737e-05 0 0)
(0.0030299 -0.000337296 -8.4125e-23 4.03761e-05 2.69796e-24 2.8712e-39)
(0.00377113 -0.00028626 8.64006e-23 2.42621e-05 -2.61574e-24 2.82387e-39)
(0.00442537 -0.000175918 -8.85836e-23 9.82294e-06 2.54245e-24 2.77701e-39)
(0.00486841 -8.49292e-06 -9.06684e-23 3.59384e-06 2.47679e-24 2.73061e-39)
(0.00499501 0.000189244 0 1.19899e-05 0 0)
(0.00475582 0.000359268 0 3.38861e-05 0 0)
(0.00422866 0.000442841 9.63645e-23 5.50652e-05 -2.22391e-24 2.59408e-39)
(0.00360991 0.000429431 9.80535e-23 6.04501e-05 -2.11365e-24 2.54951e-39)
(0.00306178 0.000358867 0 5.0731e-05 0 0)
(0.00263322 0.000275922 0 3.60133e-05 0 0)
(0.00231651 0.000204267 1.02415e-22 2.32884e-05 -1.78964e-24 2.41917e-39)
(0.00208671 0.00015073 0 1.46067e-05 0 0)
(0.00191842 0.000114244 0 9.43756e-06 0 0)
(0.00179185 9.11616e-05 -1.05815e-22 6.62271e-06 1.53463e-24 2.29387e-39)
(0.0016933 7.75081e-05 0 5.19262e-06 0 0)
(0.00161416 7.00472e-05 -1.07613e-22 4.54164e-06 1.39162e-24 2.21305e-39)
(0.00154957 6.66618e-05 -2.16761e-22 4.35715e-06 2.65003e-24 8.69376e-39)
(0.00149721 6.63159e-05 0 4.53135e-06 0 0)
(0.00145614 6.86286e-05 0 5.11024e-06 0 0)
(0.00142735 7.35018e-05 0 6.28847e-06 0 0)
(0.00141316 8.06183e-05 0 8.38822e-06 0 0)
(0.00141825 9.04863e-05 0 1.21255e-05 0 0)
(0.00144556 0.000103239 -2.22629e-22 1.86329e-05 2.02765e-24 7.78778e-39)
(0.00150603 0.000113429 -2.23077e-22 2.72631e-05 1.93032e-24 7.64437e-39)
(0.00161224 0.000107793 -2.23401e-22 3.19775e-05 1.82731e-24 7.50309e-39)
(0.00178651 6.52488e-05 0 2.38926e-05 0 0)
(0.00208406 -4.25183e-05 2.23619e-22 1.08919e-05 -1.55067e-24 7.22678e-39)
(0.00258335 -0.000255042 0 3.38247e-05 0 0)
(0.00339469 -0.000615915 -2.23165e-22 0.00014539 1.15213e-24 6.95863e-39)
(0.00458761 -0.0011167 -2.22673e-22 0.000349081 9.45123e-25 6.82767e-39)
(0.00619701 -0.00157714 0 0.00051123 0 0)
(0.00776747 -0.00154395 0 0.000412279 0 0)
(0.00857023 -0.000742159 0 0.000129661 0 0)
(0.00816744 0.000190326 -2.20384e-22 2.09038e-05 1.08245e-24 6.31955e-39)
(0.0070585 0.000550556 0 4.90203e-05 0 0)
(0.005988 0.000462041 0 4.26375e-05 0 0)
(0.00511668 0.000345502 0 2.91716e-05 0 0)
(0.00438832 0.000264771 0 2.12515e-05 0 0)
(0.00378698 0.000203894 0 1.57945e-05 0 0)
(0.00329346 0.000156904 0 1.18574e-05 0 0)
(0.00289104 0.00012034 0 8.95648e-06 0 0)
(0.00256313 9.19972e-05 0 6.82164e-06 0 0)
(0.00229591 7.03253e-05 2.13189e-22 5.28568e-06 -7.23437e-25 5.26313e-39)
(0.00207864 5.37489e-05 0 4.17792e-06 0 0)
(0.00190194 4.10146e-05 0 3.37475e-06 0 0)
(0.00175797 3.12215e-05 -2.09444e-22 2.79482e-06 5.79437e-25 4.94651e-39)
(0.00164035 2.37063e-05 -2.08086e-22 2.37975e-06 5.37009e-25 4.84469e-39)
(0.00154396 1.79527e-05 0 2.08466e-06 0 0)
(0.00146451 1.35438e-05 2.05231e-22 1.87356e-06 -4.60995e-25 4.64643e-39)
(0.00139843 1.01114e-05 -2.03742e-22 1.72057e-06 4.27558e-25 4.54992e-39)
(0.00134312 7.34734e-06 0 1.60917e-06 0 0)
(0.0012968 5.08229e-06 2.0066e-22 1.53083e-06 -3.69099e-25 4.362e-39)
(0.00125764 3.25114e-06 0 1.48064e-06 0 0)
(0.00122435 1.77909e-06 0 1.4517e-06 0 0)
(0.00119577 5.90986e-07 -1.95846e-22 1.43829e-06 3.02307e-25 4.09244e-39)
(0.00117108 -3.72936e-07 0 1.43561e-06 0 0)
(0.00114955 -1.15402e-06 1.92557e-22 1.44079e-06 -2.70875e-25 3.92061e-39)
(0.00113064 -1.79389e-06 0 1.45279e-06 0 0)
(0.00111391 -2.33523e-06 -1.89236e-22 1.47113e-06 2.47807e-25 3.75485e-39)
(0.00109905 -2.81012e-06 -1.87571e-22 1.49469e-06 2.38756e-25 3.67418e-39)
(0.00108584 -3.24198e-06 -1.85907e-22 1.52085e-06 2.30997e-25 3.59495e-39)
(0.0010741 -3.63794e-06 -3.68486e-22 1.54733e-06 4.48399e-25 1.40686e-38)
(0.00106371 -4.00364e-06 3.65164e-22 1.57278e-06 -4.36041e-25 1.37629e-38)
(0.00105459 -4.34674e-06 0 1.5968e-06 0 0)
(0.00104665 -4.67522e-06 0 1.6192e-06 0 0)
(0.00103986 -4.99057e-06 0 1.64023e-06 0 0)
(0.00103419 -5.2967e-06 3.51931e-22 1.66006e-06 -3.90134e-25 1.25944e-38)
(0.0010296 -5.59523e-06 3.48632e-22 1.67886e-06 -3.77916e-25 1.23154e-38)
(0.00102606 -5.88786e-06 -3.45334e-22 1.69665e-06 3.64549e-25 1.20414e-38)
(0.00102355 -6.17409e-06 0 1.71332e-06 0 0)
(0.001022 -6.45205e-06 3.3873e-22 1.72826e-06 -3.33099e-25 1.15083e-38)
(0.00102135 -6.7135e-06 3.35416e-22 1.74077e-06 -3.14828e-25 1.12491e-38)
(0.00102153 -6.95181e-06 3.32091e-22 1.74957e-06 -2.95051e-25 1.09946e-38)
(0.0010224 -7.1526e-06 0 1.75388e-06 0 0)
(0.00102385 -7.30067e-06 0 1.75239e-06 0 0)
(0.00102573 -7.37167e-06 0 1.74367e-06 0 0)
(0.00102783 -7.32762e-06 3.18632e-22 1.72704e-06 -2.06638e-25 1.00225e-38)
(0.0010299 -7.14893e-06 0 1.70477e-06 0 0)
(0.00103167 -6.85042e-06 0 1.68244e-06 0 0)
(0.00103289 -6.48943e-06 -3.0836e-22 1.66714e-06 1.39611e-25 9.33974e-39)
(0.00103354 -6.15141e-06 0 1.66334e-06 0 0)
(0.00103369 -5.90934e-06 0 1.66983e-06 0 0)