/*--------------------------------*- C++ -*----------------------------------*\
| =========                 |                                                 |
| \\      /  F ield         | OpenFOAM: The Open Source CFD Toolbox           |
|  \\    /   O peration     | Version:  2312                                  |
|   \\  /    A nd           | Website:  www.openfoam.com                      |
|    \\/     M anipulation  |                                                 |
\*---------------------------------------------------------------------------*/
FoamFile
{
    version     2.0;
    format      ascii;
    arch        "LSB;label=32;scalar=64";
    class       volScalarField;
    location    "0.2";
    object      Dk;
}
// * * * * * * * * * * * * * * * * * * * * * * * * * * * * * * * * * * * * * //

dimensions      [0 2 -3 0 0 0 0];

internalField   nonuniform List<scalar> 
12225
(
2025.55
7570.69
79539.9
77278.1
53547.5
31202
21769.5
17745
16074.3
15427.4
15111.1
14943.2
14763
14604
14544.4
14363
14673
14177
86.3134
403.971
5747.46
12444.3
13118.6
11965.5
10828.2
9903.4
9153.79
8590.84
8158.12
7834.84
7562.52
7354.07
7155.81
7033.67
6859.35
6820.7
19.9954
54.495
304.344
1113.31
1856.8
2145.2
2394
2568.67
2669.63
2750.86
2818.59
2881.48
2917.82
2933.96
2943.15
2955.66
2946.82
2979.98
15.436
20.6521
49.9711
134.007
255.028
343.763
410.592
471.369
519.468
575.432
621.282
679.298
718.029
765.267
791.932
836.463
860.936
916.073
14.9671
15.8095
20.1407
31.6553
56.1999
80.2767
99.352
117.445
131.978
147.386
159.148
172.97
181.389
191.84
197.32
206.289
211.295
223.811
14.9738
15.1239
15.7677
17.7154
22.3929
28.786
34.2992
40.3074
45.0845
50.3439
54.2421
58.5338
61.197
64.6148
66.1747
68.7005
69.8367
73.2482
14.9671
15.0023
15.0835
15.4299
16.2704
17.8774
19.5002
21.5593
23.2013
25.0784
26.542
28.2162
29.4177
30.9273
31.7312
32.7504
33.1255
34.2177
14.8374
14.793
14.8467
14.9849
15.1876
15.5429
15.9677
16.6382
17.1609
17.7913
18.2973
18.9399
19.4692
20.131
20.5573
21.0028
21.1483
21.5245
14.8606
14.8389
14.8865
14.9721
15.0345
15.1051
15.172
15.3132
15.396
15.5046
15.5856
15.7538
15.9252
16.1882
16.3921
16.6062
16.673
16.8289
14.9096
14.8593
14.89
14.9365
14.9564
14.9876
14.987
14.9736
14.9265
14.823
14.7309
14.6767
14.6648
14.7181
14.7913
14.8745
14.8928
14.9305
14.9151
14.9405
14.8686
14.8007
14.7981
14.834
14.8552
14.84
14.7832
14.6322
14.4562
14.3309
14.2647
14.2371
14.2324
14.2376
14.2147
14.1867
14.9971
14.9397
14.7906
14.6493
14.6394
14.6758
14.7038
14.6941
14.6463
14.5087
14.3422
14.2191
14.1436
14.1058
14.0849
14.0617
14.0093
13.9327
14.979
14.9799
14.8015
14.5889
14.5376
14.5324
14.5317
14.5136
14.4626
14.3497
14.2279
14.137
14.0824
14.0549
14.0338
14.0024
13.9315
13.821
14.9013
14.8576
14.699
14.5928
14.5075
14.44
14.3989
14.3597
14.2928
14.1921
14.0962
14.0303
13.9958
13.9788
13.9613
13.9289
13.8537
13.7261
14.9459
14.9392
14.8978
14.7853
14.5654
14.3796
14.2797
14.2367
14.198
14.1164
14.0048
13.919
13.8696
13.8431
13.8125
13.7601
13.6639
13.546
14.8679
14.7893
14.6779
14.6181
14.5437
14.3935
14.2436
14.1531
14.0811
13.9986
13.9092
13.8363
13.7803
13.7298
13.6667
13.5833
13.4847
13.3801
14.8922
14.8333
14.8702
14.8972
14.8551
14.6533
14.3422
14.1169
13.9754
13.8975
13.8581
13.8363
13.8162
13.786
13.7375
13.6562
13.5676
13.4737
14.8355
14.7367
14.7115
14.703
14.6634
14.5308
14.3225
14.1327
13.9792
13.8658
13.7868
13.7322
13.7015
13.6806
13.6676
13.6461
13.6153
13.5776
14.8035
14.7496
14.649
14.5217
14.4748
14.4552
14.4003
14.235
14.048
13.9037
13.7759
13.6461
13.5166
13.4016
13.3153
13.2637
13.2446
13.2411
14.8369
14.7389
14.5884
14.4738
14.4244
14.378
14.3151
14.2405
14.161
14.0772
13.9821
13.8655
13.7263
13.5738
13.4236
13.2896
13.1855
13.117
14.8408
14.7451
14.602
14.4744
14.3202
14.2229
14.2047
14.2209
14.2556
14.258
14.2342
14.1477
13.9873
13.81
13.635
13.4736
13.3394
13.2401
14.8553
14.7981
14.6945
14.532
14.3263
14.2271
14.2216
14.2569
14.3671
14.4251
14.4294
14.4059
14.3195
14.1421
13.9443
13.7583
13.6017
13.4818
14.9048
14.8078
14.7871
14.7419
14.5238
14.3448
14.3271
14.3596
14.5068
14.69
14.7579
14.7596
14.7208
14.5713
14.3801
14.2401
14.1472
14.0733
14.8591
14.7988
14.8266
14.8117
14.6466
14.4831
14.4839
14.5562
14.7702
15.1851
15.5608
15.7596
15.9114
15.9322
15.9817
16.0282
16.2039
16.3336
14.9182
14.8533
14.8604
14.9604
15.0763
15.2221
15.515
16.1263
17.4166
19.1381
20.8468
21.8723
22.8087
23.3408
24.167
24.8523
25.9441
26.7751
14.9191
14.9492
15.0368
15.455
16.4648
18.6224
22.6225
28.5449
36.8994
44.3864
50.8459
54.7103
57.9769
60.1886
63.5673
66.6277
70.979
74.5534
15.0142
15.7642
17.3355
20.901
29.5665
51.2858
90.1304
131.576
170.189
200.667
223.636
236.979
248.246
257.214
271.601
286.44
307.524
325.427
16.5719
25.2416
38.607
69.6074
169.564
441.968
818.009
1117.1
1299.19
1418.92
1496.51
1540.34
1574.35
1612.94
1673.16
1734.63
1807.72
1863.16
48.5289
153.39
308.326
697.48
3451.78
7656.89
9590.63
9480.92
8882.27
8245.76
7694.14
7269.92
6961.87
6739.6
6565.57
6423.91
6297.56
6175.38
1061.4
2711.07
5548.55
13049.8
55458
62224.2
51584.6
33160.6
22488.7
17070.1
14480.9
13240.2
12627.1
12311
12094.9
11935
11764
11624.3
0.000625526
0.00102749
0.0036026
0.0137639
0.041507
0.092299
0.160473
0.239436
0.3231
0.40655
0.486375
0.55992
0.625699
0.683091
0.731466
0.770959
0.801994
0.825071
0.84071
0.85069
0.854084
0.854292
0.853697
0.85196
0.852571
0.855608
0.863314
0.879193
0.906427
0.947695
1.00538
1.08151
1.1775
1.2936
1.42863
1.58078
1.74739
1.92573
2.11369
2.31029
2.51575
2.73225
2.96255
3.21127
3.48171
3.7724
4.06618
4.32457
4.49805
4.52226
4.50214
4.49456
4.52211
4.60488
4.74654
4.94
5.36513
6.67629
10.2757
16.2316
24.2892
34.3374
46.2923
60.0211
75.3786
92.2068
110.346
129.645
149.961
171.161
193.12
215.719
238.845
262.386
286.219
310.276
334.487
358.796
383.149
407.503
431.817
456.058
480.192
504.188
528.011
551.632
575.02
598.144
620.959
643.425
665.494
687.12
708.253
728.844
748.843
768.202
786.874
804.816
821.987
838.348
853.862
868.494
882.217
895.006
906.838
917.668
927.443
936.132
943.693
950.079
955.275
958.931
961.231
962.701
962.445
960.813
957.697
953.073
946.913
939.204
929.95
919.17
906.904
893.209
878.164
861.874
844.455
826.052
806.795
786.845
766.354
745.49
724.428
703.299
682.236
661.358
640.763
620.543
600.766
581.477
562.708
544.473
526.771
509.59
492.908
476.696
460.923
445.555
430.56
415.908
401.574
387.54
373.793
360.329
347.15
334.265
321.688
309.437
297.532
285.994
274.844
264.098
253.772
243.874
234.407
225.366
216.746
208.527
200.685
193.202
186.293
182.517
184.718
188.726
192.725
196.494
200.106
202.193
205.101
188.444
0.00323839
0.00439415
0.0131786
0.0350221
0.0800938
0.141675
0.203827
0.260153
0.309005
0.350957
0.38713
0.419271
0.44757
0.472394
0.495288
0.515726
0.533961
0.550195
0.564611
0.577461
0.589453
0.601276
0.614147
0.62959
0.649072
0.673698
0.705531
0.747394
0.802332
0.873379
0.962776
1.07216
1.20271
1.35513
1.52966
1.72643
1.94589
2.18953
2.4607
2.76527
3.11253
3.51586
3.99272
4.56429
5.25056
6.05669
6.95538
7.90202
8.84034
9.79759
10.9354
12.4395
14.355
16.6281
19.2749
22.3955
26.1156
30.5415
35.5426
40.7213
46.0053
51.3509
56.7309
62.1285
67.5341
72.9418
78.3501
83.7593
89.1704
94.5845
100.004
105.434
110.887
116.382
121.819
127.215
132.576
137.898
143.184
148.432
153.643
158.813
163.939
169.016
174.037
178.991
183.883
188.717
193.479
198.164
202.762
207.268
211.673
215.973
220.16
224.232
228.182
232.007
235.704
239.267
242.695
245.983
249.132
252.139
255.008
257.719
260.267
262.651
264.853
266.867
268.72
270.458
272.048
273.44
274.618
275.592
276.355
276.899
277.225
277.335
277.231
276.92
276.408
275.703
274.816
273.76
272.53
271.185
269.696
268.092
266.381
264.59
262.748
260.847
258.902
256.925
254.925
252.91
250.887
248.86
246.831
244.8
242.768
240.731
238.687
236.632
234.563
232.475
230.366
228.232
226.074
223.89
221.683
219.456
217.213
214.962
212.71
210.466
208.238
206.035
203.866
201.738
199.656
197.626
195.649
193.724
191.851
190.023
188.233
186.475
184.788
183.603
183.217
183.135
183.018
182.858
182.47
182.309
181.328
177.104
0.00418278
0.0153096
0.0500487
0.121169
0.229821
0.31558
0.368365
0.396372
0.410324
0.417797
0.423401
0.430059
0.43895
0.450605
0.465834
0.482364
0.502182
0.525312
0.551384
0.580672
0.613625
0.65094
0.693843
0.743856
0.802488
0.871401
0.952616
1.04858
1.16217
1.29666
1.45559
1.64292
1.86337
2.12244
2.42629
2.78257
3.20103
3.69391
4.27574
4.96343
5.77514
6.7273
7.82939
9.0776
10.4468
11.8954
13.3882
14.9386
16.5778
18.2871
19.9678
21.8004
23.8099
26.0367
28.5084
31.2461
34.2213
37.2578
40.3147
43.3301
46.3263
49.3166
52.3129
55.3253
58.3649
61.4355
64.528
67.6421
70.7974
73.9796
77.187
80.4146
83.6532
86.8921
90.162
93.4596
96.7811
100.123
103.482
106.854
110.236
113.624
117.014
120.403
123.789
127.17
130.537
133.883
137.205
140.499
143.761
146.987
150.174
153.317
156.414
159.461
162.455
165.392
168.27
171.084
173.831
176.507
179.111
181.643
184.103
186.484
188.779
190.984
193.096
195.117
197.052
198.904
200.672
202.328
203.878
205.315
206.637
207.841
208.926
209.891
210.736
211.46
212.063
212.548
212.915
213.168
213.308
213.341
213.267
213.092
212.812
212.436
211.998
211.48
210.881
210.214
209.483
208.694
207.852
206.962
206.027
205.048
204.03
202.971
201.874
200.737
199.561
198.344
197.086
195.785
194.442
193.056
191.629
190.163
188.659
187.123
185.559
183.973
182.37
180.759
179.146
177.537
175.939
174.357
172.796
171.258
169.746
168.26
166.799
165.364
163.972
162.78
161.887
161.183
160.516
159.874
159.166
158.675
157.93
156.901
0.0173156
0.0558948
0.172423
0.363253
0.510811
0.561302
0.562181
0.545748
0.527401
0.513484
0.505667
0.503451
0.506514
0.514885
0.528627
0.546791
0.57008
0.599763
0.635704
0.678642
0.729597
0.78998
0.861503
0.946059
1.04582
1.16336
1.30169
1.46445
1.65605
1.88187
2.14816
2.46193
2.82989
3.26008
3.76434
4.35556
5.04928
5.86248
6.80221
7.86988
9.05493
10.3292
11.6513
13.0129
14.4115
15.867
17.3056
18.6478
19.9799
21.3973
22.9933
24.7435
26.6352
28.6518
30.8021
33.0662
35.4138
37.7999
40.2136
42.6397
45.0885
47.5662
50.079
52.631
55.2243
57.871
60.5581
63.2726
66.0407
68.8469
71.6902
74.5673
77.4755
80.4132
83.3817
86.3782
89.399
92.4408
95.5001
98.5735
101.658
104.749
107.844
110.94
114.034
117.121
120.2
123.264
126.313
129.342
132.349
135.33
138.283
141.204
144.09
146.939
149.747
152.51
155.227
157.894
160.509
163.071
165.578
168.025
170.41
172.729
174.979
177.156
179.258
181.286
183.24
185.119
186.918
188.634
190.261
191.799
193.245
194.598
195.855
197.016
198.077
199.038
199.897
200.651
201.3
201.843
202.278
202.606
202.825
202.936
202.936
202.826
202.636
202.347
201.96
201.486
200.929
200.296
199.594
198.828
198.004
197.128
196.204
195.235
194.225
193.176
192.089
190.964
189.8
188.598
187.356
186.073
184.748
183.381
181.972
180.522
179.033
177.508
175.952
174.37
172.768
171.153
169.533
167.915
166.305
164.712
163.141
161.597
160.083
158.603
157.171
155.85
154.696
153.677
152.717
151.821
150.933
150.229
149.519
149.027
0.0976942
0.180731
0.469294
0.739862
0.773115
0.732837
0.68739
0.651604
0.626483
0.610606
0.602997
0.602607
0.608831
0.621356
0.64065
0.666332
0.700498
0.743753
0.797111
0.862092
0.940448
1.03417
1.14547
1.27703
1.43213
1.61454
1.8287
2.07993
2.37482
2.72147
3.12826
3.60494
4.16257
4.81153
5.55826
6.406
7.3503
8.3767
9.46608
10.5889
11.743
12.9317
14.1818
15.4164
16.5533
17.6562
18.8051
20.0612
21.4227
22.8987
24.5
26.2064
28.0108
29.9046
31.8835
33.9358
36.051
38.22
40.4408
42.7107
45.0323
47.4079
49.8436
52.3379
54.878
57.4774
60.1321
62.8385
65.5988
68.4073
71.2621
74.1603
77.0989
80.0753
83.0867
86.1294
89.1995
92.2931
95.4063
98.535
101.676
104.824
107.977
111.131
114.284
117.431
120.57
123.698
126.813
129.911
132.99
136.047
139.079
142.084
145.058
147.997
150.899
153.76
156.577
159.346
162.067
164.736
167.348
169.9
172.39
174.813
177.168
179.45
181.659
183.793
185.851
187.833
189.735
191.557
193.296
194.95
196.519
198.002
199.395
200.698
201.906
203.018
204.029
204.936
205.736
206.425
206.998
207.454
207.789
208
208.081
208.035
207.888
207.614
207.223
206.723
206.119
205.421
204.636
203.773
202.841
201.849
200.803
199.713
198.581
197.414
196.213
194.981
193.718
192.423
191.094
189.73
188.326
186.881
185.392
183.856
182.273
180.643
178.968
177.252
175.501
173.72
171.92
170.109
168.298
166.498
164.718
162.97
161.26
159.599
157.996
156.482
155.089
153.809
152.609
151.491
150.423
149.517
148.7
148.071
0.329419
0.47793
0.957951
1.05071
0.956207
0.866767
0.803559
0.762441
0.737527
0.724624
0.720917
0.725873
0.739504
0.762062
0.79347
0.835145
0.888027
0.953551
1.03349
1.12998
1.24568
1.38373
1.54785
1.74213
1.97111
2.23993
2.55438
2.9208
3.34587
3.83624
4.39908
5.03977
5.7605
6.5583
7.42373
8.34074
9.28814
10.2635
11.2708
12.3296
13.3869
14.3985
15.3619
16.3452
17.3953
18.532
19.7499
21.0706
22.4878
24.0021
25.6085
27.2973
29.0645
30.9059
32.8193
34.8016
36.8518
38.9707
41.1589
43.4244
45.7569
48.1591
50.639
53.1904
55.812
58.5058
61.2687
64.0988
66.994
69.9509
72.9666
76.0375
79.1599
82.3298
85.5428
88.7944
92.0797
95.3939
98.7321
102.09
105.461
108.844
112.232
115.623
119.014
122.4
125.779
129.15
132.508
135.851
139.178
142.485
145.769
149.027
152.256
155.452
158.61
161.728
164.8
167.825
170.797
173.713
176.567
179.356
182.075
184.721
187.291
189.782
192.191
194.518
196.762
198.921
200.995
202.983
204.886
206.702
208.431
210.072
211.623
213.082
214.446
215.709
216.869
217.919
218.854
219.667
220.347
220.898
221.308
221.572
221.681
221.641
221.466
221.136
220.661
220.049
219.307
218.446
217.478
216.413
215.266
214.047
212.769
211.442
210.077
208.679
207.254
205.806
204.336
202.844
201.328
199.785
198.21
196.596
194.939
193.233
191.473
189.657
187.782
185.85
183.865
181.833
179.764
177.669
175.562
173.458
171.372
169.32
167.315
165.371
163.498
161.717
160.047
158.491
157.033
155.675
154.398
153.294
152.281
151.338
0.733719
0.964752
1.42846
1.28539
1.11372
1.00165
0.932742
0.89183
0.869125
0.860836
0.865231
0.881031
0.907828
0.945927
0.996169
1.0599
1.13882
1.23508
1.35121
1.49022
1.65556
1.85113
2.08127
2.35065
2.66413
3.02668
3.44312
3.91769
4.45346
5.05154
5.71033
6.4246
7.18518
7.97934
8.80135
9.65376
10.5494
11.4579
12.3562
13.2196
14.0914
14.9961
15.9594
16.9993
18.1121
19.3102
20.5936
21.9649
23.4202
24.9572
26.5723
28.2619
30.0248
31.8604
33.7721
35.7614
37.8229
39.9691
42.201
44.5211
46.9295
49.4289
52.0203
54.7023
57.4746
60.3365
63.286
66.3208
69.4382
72.6348
75.9066
79.2493
82.6581
86.1276
89.6522
93.226
96.8429
100.497
104.181
107.891
111.619
115.361
119.112
122.868
126.625
130.38
134.129
137.87
141.601
145.319
149.021
152.705
156.368
160.006
163.615
167.192
170.732
174.23
177.683
181.084
184.427
187.705
190.913
194.045
197.097
200.064
202.94
205.723
208.409
210.999
213.492
215.887
218.186
220.388
222.494
224.506
226.425
228.249
229.978
231.61
233.142
234.567
235.882
237.079
238.149
239.084
239.873
240.506
240.983
241.286
241.404
241.345
241.113
240.693
240.093
239.321
238.387
237.304
236.087
234.75
233.311
231.787
230.193
228.543
226.848
225.125
223.382
221.626
219.86
218.085
216.3
214.502
212.683
210.835
208.948
207.014
205.023
202.966
200.839
198.638
196.363
194.02
191.618
189.17
186.693
184.206
181.73
179.287
176.897
174.58
172.35
170.226
168.222
166.346
164.591
162.957
161.43
160.068
158.826
157.528
1.23375
1.58413
1.80204
1.48778
1.27713
1.15431
1.08299
1.04304
1.02634
1.02771
1.04451
1.07491
1.11896
1.17749
1.25173
1.34347
1.45496
1.58888
1.74828
1.93658
2.15745
2.41477
2.71245
3.05418
3.44303
3.88118
4.36938
4.90663
5.48987
6.1142
6.77271
7.45918
8.17548
8.92751
9.70604
10.4917
11.2594
12.0357
12.837
13.6794
14.566
15.5136
16.5334
17.6283
18.7976
20.0458
21.3727
22.7778
24.2606
25.8204
27.4528
29.1616
30.9475
32.8125
34.7605
36.7947
38.919
41.1402
43.4623
45.8889
48.4232
51.0677
53.8237
56.6917
59.6716
62.7628
65.9637
69.272
72.6847
76.1982
79.8076
83.5073
87.2912
91.1525
95.0841
99.0784
103.128
107.224
111.36
115.528
119.721
123.932
128.156
132.387
136.622
140.856
145.086
149.31
153.524
157.727
161.916
166.087
170.238
174.365
178.462
182.526
186.552
190.533
194.462
198.33
202.131
205.856
209.499
213.052
216.508
219.862
223.109
226.245
229.266
232.172
234.962
237.637
240.198
242.647
244.986
247.217
249.342
251.364
253.282
255.094
256.799
258.39
259.861
261.205
262.41
263.466
264.356
265.071
265.603
265.932
266.044
265.942
265.624
265.078
264.309
263.326
262.141
260.769
259.23
257.543
255.731
253.815
251.819
249.761
247.661
245.534
243.395
241.253
239.115
236.985
234.863
232.745
230.623
228.488
226.327
224.124
221.866
219.54
217.133
214.636
212.044
209.359
206.589
203.747
200.851
197.926
194.998
192.096
189.248
186.482
183.82
181.281
178.882
176.631
174.524
172.566
170.744
169.093
167.558
165.921
1.73275
2.21641
2.1121
1.7018
1.46206
1.32871
1.25549
1.22109
1.21372
1.22798
1.25993
1.30786
1.37277
1.45552
1.55766
1.68128
1.8289
2.00333
2.20757
2.4445
2.71691
3.02728
3.37751
3.76851
4.20003
4.67053
5.17732
5.71665
6.28374
6.87869
7.50432
8.16263
8.83813
9.51458
10.1982
10.9009
11.6382
12.4112
13.2293
14.1006
15.0309
16.0273
17.0936
18.2311
19.441
20.725
22.0837
23.5177
25.028
26.6154
28.2815
30.0296
31.8632
33.7864
35.8046
37.923
40.1477
42.4854
44.9416
47.5218
50.2306
53.0717
56.0474
59.159
62.4073
65.792
69.3119
72.9647
76.7474
80.6569
84.6866
88.829
93.0766
97.4211
101.853
106.364
110.943
115.582
120.27
124.998
129.756
134.534
139.329
144.136
148.949
153.764
158.578
163.388
168.191
172.984
177.764
182.528
187.272
191.993
196.683
201.337
205.946
210.503
214.999
219.425
223.772
228.029
232.187
236.236
240.169
243.978
247.658
251.202
254.608
257.875
261.003
263.992
266.846
269.566
272.158
274.624
276.969
279.196
281.308
283.304
285.183
286.939
288.568
290.059
291.401
292.579
293.573
294.372
294.959
295.311
295.412
295.254
294.833
294.135
293.161
291.92
290.426
288.699
286.762
284.641
282.365
279.963
277.463
274.894
272.279
269.641
266.997
264.365
261.753
259.17
256.619
254.097
251.598
249.109
246.614
244.094
241.528
238.896
236.178
233.356
230.418
227.359
224.182
220.899
217.53
214.102
210.65
207.209
203.818
200.513
197.326
194.283
191.405
188.708
186.196
183.869
181.714
179.751
177.918
175.929
2.14675
2.80077
2.4406
1.94072
1.66824
1.52429
1.45255
1.42514
1.42958
1.45902
1.5072
1.57502
1.66275
1.7713
1.90228
2.05772
2.23994
2.45135
2.69383
2.96857
3.27637
3.61705
3.9906
4.39589
4.8311
5.29376
5.78189
6.29722
6.84369
7.41374
7.99805
8.5908
9.20183
9.84081
10.51
11.2153
11.9639
12.7601
13.6094
14.5164
15.4852
16.5192
17.6207
18.7915
20.0336
21.3489
22.7395
24.2078
25.7566
27.3892
29.1096
30.9227
32.8341
34.8502
36.9777
39.2232
41.5942
44.0979
46.7414
49.5314
52.4746
55.5787
58.844
62.2722
65.8649
69.6222
73.5428
77.6237
81.859
86.2377
90.7585
95.4186
100.21
105.121
110.142
115.259
120.461
125.736
131.074
136.463
141.893
147.356
152.841
158.34
163.848
169.359
174.87
180.377
185.877
191.365
196.841
202.299
207.735
213.144
218.519
223.851
229.132
234.352
239.501
244.566
249.534
254.395
259.133
263.739
268.2
272.509
276.659
280.643
284.46
288.108
291.588
294.904
298.057
301.053
303.898
306.596
309.154
311.577
313.87
316.036
318.073
319.98
321.751
323.377
324.845
326.138
327.23
328.111
328.75
329.124
329.21
328.99
328.453
327.582
326.372
324.831
322.973
320.822
318.406
315.76
312.92
309.924
306.81
303.612
300.365
297.097
293.834
290.595
287.398
284.255
281.174
278.156
275.195
272.278
269.389
266.503
263.592
260.629
257.582
254.425
251.132
247.688
244.09
240.344
236.469
232.496
228.463
224.416
220.404
216.476
212.675
209.037
205.592
202.363
199.36
196.586
194.031
191.701
189.531
187.156
2.50519
3.4107
2.79432
2.19696
1.89091
1.73847
1.66885
1.65007
1.66773
1.71214
1.77766
1.86552
1.97547
2.10814
2.26478
2.44689
2.65606
2.89367
3.16033
3.45506
3.77468
4.11944
4.49039
4.88526
5.3042
5.74932
6.22172
6.71433
7.21925
7.7421
8.28794
8.86122
9.46469
10.1037
10.7822
11.5049
12.2763
13.0998
13.9792
14.9178
15.9186
16.9846
18.1185
19.3231
20.6015
21.9573
23.3944
24.917
26.5297
28.2378
30.0472
31.965
33.9988
36.1579
38.4544
40.8921
43.479
46.2233
49.1326
52.2131
55.4678
58.8923
62.505
66.3134
70.3202
74.526
78.93
83.5297
88.3204
93.298
98.4525
103.772
109.245
114.86
120.598
126.446
132.389
138.415
144.512
150.668
156.871
163.108
169.372
175.654
181.948
188.249
194.55
200.847
207.137
213.415
219.678
225.921
232.14
238.326
244.473
250.57
256.606
262.568
268.442
274.214
279.867
285.386
290.753
295.952
300.969
305.793
310.417
314.835
319.047
323.055
326.862
330.473
333.893
337.129
340.188
343.08
345.813
348.393
350.827
353.12
355.272
357.287
359.161
360.885
362.447
363.828
365.002
365.949
366.633
367.025
367.093
366.811
366.154
365.105
363.644
361.774
359.509
356.874
353.902
350.639
347.13
343.425
339.572
335.617
331.604
327.572
323.554
319.577
315.662
311.833
308.103
304.478
300.955
297.523
294.165
290.854
287.558
284.237
280.853
277.36
273.721
269.905
265.896
261.691
257.303
252.761
248.111
243.407
238.71
234.083
229.582
225.259
221.155
217.303
213.722
210.422
207.394
204.638
202.093
199.323
2.78251
4.03287
3.15089
2.45886
2.12321
1.96314
1.89629
1.88707
1.91784
1.97606
2.05799
2.16374
2.29248
2.44432
2.61978
2.81957
3.04426
3.29405
3.56839
3.86549
4.18278
4.51873
4.87346
5.25254
5.65648
6.07872
6.51743
6.97662
7.46093
7.97125
8.51122
9.08473
9.69546
10.3474
11.0442
11.7893
12.5864
13.4385
14.349
15.3214
16.3591
17.4657
18.645
19.9014
21.2397
22.6656
24.186
25.8103
27.541
29.3844
31.3482
33.4407
35.6696
38.0408
40.5527
43.2304
46.0886
49.138
52.3886
55.8493
59.5295
63.4422
67.5893
71.9728
76.5923
81.4461
86.5311
91.8449
97.3781
103.118
109.049
115.158
121.425
127.836
134.374
141.026
147.778
154.616
161.532
168.515
175.553
182.636
189.754
196.9
204.066
211.243
218.423
225.6
232.77
239.927
247.067
254.185
261.272
268.322
275.323
282.263
289.127
295.899
302.562
309.096
315.481
321.695
327.717
333.525
339.099
344.423
349.485
354.28
358.817
363.104
367.147
370.955
374.54
377.911
381.082
384.065
386.873
389.517
392.002
394.333
396.511
398.546
400.44
402.189
403.778
405.187
406.393
407.369
408.076
408.475
408.526
408.189
407.423
406.207
404.507
402.309
399.629
396.482
392.902
388.946
384.676
380.151
375.433
370.582
365.655
360.707
355.782
350.914
346.128
341.462
336.942
332.576
328.364
324.305
320.384
316.574
312.836
309.128
305.395
301.578
297.619
293.468
289.088
284.46
279.587
274.491
269.218
263.832
258.405
253.018
247.745
242.652
237.798
233.231
228.981
225.066
221.484
218.233
215.263
212.073
2.97592
4.63636
3.49822
2.71993
2.35647
2.18921
2.12538
2.12491
2.16727
2.23722
2.33266
2.4522
2.59431
2.75842
2.94436
3.15207
3.38137
3.63181
3.9025
4.19196
4.49874
4.82412
5.16782
5.52598
5.90202
6.30168
6.72659
7.17782
7.65818
8.1705
8.71822
9.30493
9.93407
10.6091
11.3335
12.1106
12.9441
13.8378
14.7962
15.8251
16.9311
18.1165
19.3866
20.7473
22.2049
23.7649
25.4304
27.1976
29.0868
31.1113
33.2824
35.6122
38.1135
40.8018
43.6993
46.8163
50.1666
53.7642
57.618
61.7376
66.1316
70.8083
75.7706
81.0162
86.5317
92.306
98.3261
104.574
111.036
117.698
124.542
131.551
138.706
145.989
153.386
160.879
168.453
176.105
183.831
191.629
199.493
207.418
215.403
223.442
231.52
239.62
247.731
255.843
263.95
272.047
280.126
288.181
296.203
304.182
312.104
319.951
327.704
335.341
342.84
350.177
357.324
364.254
370.939
377.35
383.461
389.25
394.694
399.766
404.5
408.916
413.028
416.851
420.403
423.704
426.776
429.641
432.319
434.83
437.183
439.385
441.425
443.312
445.074
446.709
448.2
449.526
450.659
451.584
452.252
452.622
452.647
452.265
451.42
450.067
448.173
445.693
442.642
439.024
434.853
430.181
425.1
419.68
413.995
408.119
402.131
396.102
390.097
384.167
378.333
372.651
367.17
361.903
356.847
352.017
347.408
342.992
338.734
334.586
330.484
326.352
322.11
317.683
313.007
308.036
302.751
297.162
291.308
285.255
279.089
272.91
266.811
260.879
255.195
249.824
244.813
240.191
235.967
232.142
228.686
225.045
3.08999
5.21503
3.82909
2.97076
2.58124
2.407
2.34525
2.35146
2.40283
2.48177
2.58687
2.71528
2.8648
3.03437
3.22337
3.43133
3.65785
3.90252
4.16492
4.44471
4.74269
5.05536
5.3839
5.73278
6.10358
6.49911
6.92356
7.38106
7.87421
8.40602
8.98042
9.60199
10.2736
10.999
11.7822
12.627
13.5368
14.5157
15.5673
16.6938
17.8961
19.1895
20.5837
22.0888
23.7165
25.4809
27.3949
29.4692
31.7121
34.1372
36.7596
39.5958
42.6647
45.9893
49.603
53.5155
57.7356
62.2732
67.1315
72.3178
77.835
83.6811
89.8463
96.3194
103.092
110.147
117.46
125.003
132.743
140.648
148.681
156.804
164.984
173.19
181.409
189.63
197.858
206.127
214.456
222.862
231.351
239.93
248.624
257.445
266.363
275.33
284.323
293.328
302.34
311.349
320.349
329.331
338.286
347.2
356.055
364.828
373.493
382.02
390.38
398.539
406.462
414.112
421.451
428.442
435.054
441.258
447.031
452.351
457.223
461.664
465.686
469.312
472.569
475.492
478.116
480.48
482.624
484.582
486.386
488.058
489.612
491.055
492.41
493.676
494.841
495.88
496.76
497.461
497.957
498.208
498.151
497.714
496.823
495.392
493.377
490.714
487.394
483.424
478.809
473.575
467.788
461.521
454.857
447.886
440.707
433.417
426.112
418.878
411.78
404.877
398.229
391.865
385.773
379.99
374.529
369.36
364.46
359.787
355.266
350.81
346.318
341.686
336.815
331.623
326.053
320.091
313.759
307.118
300.26
293.3
286.356
279.542
272.966
266.717
260.86
255.439
250.482
245.996
241.979
237.849
3.14169
5.76031
4.13563
3.20292
2.78867
2.60705
2.54546
2.55609
2.61404
2.6993
2.81029
2.94306
3.09502
3.26516
3.45275
3.65735
3.87888
4.11759
4.37429
4.64772
4.93889
5.25071
5.58495
5.94457
6.33268
6.7529
7.20896
7.70337
8.24058
8.82518
9.45796
10.1413
10.8826
11.6885
12.5664
13.5187
14.5493
15.6641
16.8703
18.177
19.5969
21.1403
22.8218
24.6579
26.6693
28.8795
31.3013
33.9521
36.8398
39.9799
43.3905
47.091
51.1009
55.438
60.1122
65.1405
70.5377
76.3109
82.4709
89.0244
95.9734
103.315
111.039
119.129
127.567
136.324
145.365
154.649
164.124
173.735
183.418
193.106
202.733
212.237
221.602
230.81
239.822
248.741
257.621
266.485
275.358
284.283
293.34
302.626
312.176
321.801
331.452
341.113
350.781
360.452
370.124
379.793
389.451
399.086
408.683
418.219
427.665
436.985
446.14
455.089
463.787
472.183
480.222
487.85
495.016
501.678
507.806
513.39
518.378
522.759
526.542
529.747
532.415
534.601
536.352
537.726
538.798
539.631
540.284
540.806
541.257
541.674
542.054
542.413
542.755
543.071
543.337
543.526
543.607
543.532
543.239
542.649
541.679
540.24
538.245
535.619
532.27
528.192
523.384
517.849
511.597
504.685
497.192
489.215
480.864
472.26
463.527
454.792
446.181
437.775
429.65
421.877
414.493
407.528
401.003
394.884
389.166
383.827
378.789
373.955
369.216
364.44
359.486
354.225
348.551
342.402
335.773
328.702
321.275
313.616
305.866
298.172
290.674
283.493
276.722
270.418
264.639
259.403
254.741
250.074
3.20009
6.26883
4.41744
3.41463
2.97652
2.78727
2.72501
2.73933
2.80233
2.89174
3.00587
3.14045
3.29289
3.46255
3.64915
3.8531
4.07496
4.31513
4.57451
4.85611
5.16161
5.49431
5.85697
6.2524
6.68491
7.16011
7.68456
8.26035
8.88849
9.57337
10.3227
11.1464
12.0513
13.0496
14.1485
15.3458
16.6507
18.0742
19.6285
21.3285
23.1913
25.234
27.4791
29.95
32.6586
35.6149
38.8281
42.3167
46.1141
50.2457
54.7346
59.6029
64.8715
70.5583
76.6776
83.2416
90.2603
97.7398
105.683
114.089
122.952
132.258
141.99
152.122
162.624
173.458
184.579
195.936
207.469
219.109
230.778
242.386
253.828
264.955
275.758
286.319
296.625
306.736
316.666
326.424
336.033
345.546
355.039
364.648
374.471
384.284
394.057
403.797
413.517
423.233
432.957
442.7
452.465
462.253
472.059
481.869
491.657
501.386
511.014
520.493
529.769
538.776
547.438
555.667
563.381
570.503
576.962
582.697
587.646
591.788
595.163
597.731
599.577
600.75
601.317
601.359
600.973
600.251
599.278
598.102
596.811
595.482
594.153
592.878
591.692
590.614
589.655
588.787
587.97
587.157
586.287
585.284
584.057
582.511
580.53
578.017
574.822
570.849
566.067
560.449
554.002
546.762
538.786
530.154
520.965
511.338
501.402
491.298
481.155
471.101
461.269
451.786
442.773
434.278
426.343
418.982
412.191
405.961
400.225
394.881
389.827
384.911
379.955
374.776
369.206
363.112
356.441
349.188
341.411
333.224
324.784
316.272
307.864
299.725
291.986
284.727
278.04
271.964
266.56
261.295
3.76151
6.72535
4.64647
3.58253
3.12578
2.93204
2.87166
2.89103
2.95957
3.05362
3.17272
3.31213
3.47021
3.64663
3.84117
4.05446
4.28853
4.54697
4.83328
5.15111
5.50718
5.91062
6.36382
6.86113
7.41096
8.02706
8.71894
9.4829
10.3232
11.255
12.2911
13.4419
14.717
16.1252
17.6712
19.368
21.2295
23.272
25.513
27.9728
30.6746
33.6392
36.8884
40.4498
44.344
48.5903
53.2128
58.2334
63.6749
69.5591
75.9053
82.7304
90.0479
97.8674
106.194
115.029
124.37
134.209
144.536
155.335
166.585
178.26
190.33
202.759
215.506
228.527
241.772
255.186
268.707
282.266
295.781
309.154
322.26
334.918
347.014
358.743
370.173
381.257
392.011
402.476
412.672
422.685
432.642
442.37
451.691
460.767
469.689
478.515
487.293
496.064
504.859
513.705
522.618
531.61
540.685
549.842
559.067
568.327
577.584
586.788
595.883
604.802
613.457
621.736
629.534
636.753
643.284
649.042
653.98
657.948
660.983
663.083
664.276
664.6
664.116
662.913
661.113
658.837
656.208
653.193
649.981
646.671
643.343
640.076
636.933
633.964
631.183
628.572
626.17
623.965
621.918
619.963
618.012
615.953
613.663
611.003
607.823
603.994
599.451
594.128
587.989
581.03
573.262
564.722
555.47
545.589
535.182
524.362
513.255
502.026
490.832
479.834
469.179
458.999
449.415
440.526
432.35
424.903
418.181
412.106
406.576
401.438
396.492
391.511
386.27
380.56
374.235
367.215
359.489
351.113
342.249
333.104
323.891
314.825
306.1
297.857
290.21
283.227
276.996
271.066
4.53732
7.03992
4.80747
3.70009
3.23296
3.04156
2.9898
3.02022
3.09951
3.20675
3.34091
3.49716
3.67436
3.87356
4.09779
4.35026
4.6355
4.96731
5.35942
5.79734
6.29607
6.87465
7.52642
8.24555
9.05854
9.98464
11.0327
12.2162
13.5557
15.0698
16.7742
18.6822
20.8051
23.1531
25.7363
28.5697
31.6679
35.047
38.7289
42.7393
47.1222
51.8885
57.0538
62.6274
68.6356
75.1012
82.0523
89.4917
97.4315
105.883
114.854
124.346
134.358
144.881
155.904
167.41
179.377
191.781
204.594
217.786
231.322
245.166
259.281
273.624
288.153
302.82
317.577
332.376
347.161
361.875