/*--------------------------------*- C++ -*----------------------------------*\
| =========                 |                                                 |
| \\      /  F ield         | OpenFOAM: The Open Source CFD Toolbox           |
|  \\    /   O peration     | Version:  2312                                  |
|   \\  /    A nd           | Website:  www.openfoam.com                      |
|    \\/     M anipulation  |                                                 |
\*---------------------------------------------------------------------------*/
FoamFile
{
    version     2.0;
    format      ascii;
    arch        "LSB;label=32;scalar=64";
    class       volScalarField;
    location    "0.2";
    object      DkMean;
}
// * * * * * * * * * * * * * * * * * * * * * * * * * * * * * * * * * * * * * //

dimensions      [0 2 -3 0 0 0 0];

internalField   nonuniform List<scalar> 
12225
(
2028.7
7526.23
81022.1
79071.2
54819.2
31757.4
22096.8
18052
16403
15773.1
15459.1
15280.7
15106.9
14974.5
14954.8
14857.3
15254
14750.8
97.2472
407.506
5689.95
12718
13443.4
12223.4
10897.7
9878.2
9136.8
8604.39
8195.26
7880.28
7609.61
7401.47
7197.13
7075.59
6882.13
6838.84
20.0077
52.7478
290.096
1108.89
1895.91
2197.08
2417.88
2565.32
2650.18
2720.32
2785.71
2849.03
2905.77
2946.2
2968.3
2988.25
2968.59
2975.37
15.3849
20.2065
47.8577
130.883
259.532
355.356
421.64
478.477
521.532
568.842
607.634
658.468
700.008
755.726
793.615
848.929
874.626
928.866
15.0172
15.804
19.8976
31.0975
57.1279
83.8235
103.61
120.953
133.563
146.31
155.875
167.257
175.85
187.763
195.533
207.877
214.096
227.657
14.9991
15.1442
15.7721
17.5998
22.1779
29.7801
35.6792
41.602
45.8622
50.5129
53.5835
57.4102
59.6391
63.0293
64.9849
68.6647
70.3834
74.5065
15.0107
15.0367
15.159
15.4921
16.2788
17.9815
19.8249
21.9279
23.4865
25.3119
26.5552
28.1205
29.078
30.4455
31.237
32.6139
33.2488
34.7215
15.001
15.0004
15.0239
15.11
15.2758
15.6124
16.0658
16.7409
17.2748
17.9646
18.462
19.1037
19.531
20.1094
20.4527
20.9914
21.2366
21.7978
14.9842
14.9676
14.9535
14.9783
15.0275
15.0991
15.1807
15.3139
15.44
15.631
15.7805
15.9938
16.1449
16.3603
16.4941
16.7081
16.8035
17.0336
14.9804
14.9623
14.9238
14.9092
14.9107
14.9127
14.9054
14.8965
14.8863
14.8874
14.8911
14.9109
14.9276
14.9635
14.9858
15.0344
15.0493
15.1149
14.9797
14.9544
14.896
14.8512
14.821
14.7915
14.7533
14.7071
14.6564
14.6064
14.5581
14.5144
14.4739
14.4391
14.4066
14.3812
14.3514
14.3401
14.9677
14.9378
14.8676
14.8031
14.7507
14.7008
14.6458
14.5849
14.5206
14.456
14.3922
14.331
14.2717
14.2166
14.1628
14.1152
14.0645
14.0268
14.952
14.9159
14.8383
14.7602
14.6907
14.6244
14.5563
14.485
14.4121
14.3397
14.2683
14.1996
14.1324
14.0693
14.0068
13.9501
13.8909
13.8418
14.9303
14.8886
14.8066
14.7181
14.6341
14.5535
14.473
14.392
14.3112
14.232
14.1547
14.0804
14.0079
13.9395
13.872
13.8099
13.7464
13.6912
14.9013
14.8486
14.76
14.6636
14.5692
14.4782
14.3892
14.3014
14.2151
14.131
14.0492
13.9705
13.8942
13.8217
13.7508
13.6846
13.6184
13.5589
14.8876
14.8233
14.7243
14.6183
14.5145
14.4152
14.3192
14.2259
14.1351
14.0472
13.9619
13.88
13.8006
13.7249
13.6513
13.582
13.5137
13.4509
14.8705
14.7986
14.6963
14.5874
14.4797
14.3757
14.2754
14.1782
14.0839
13.9927
13.9044
13.8195
13.7374
13.6588
13.583
13.5108
13.4407
13.375
14.8571
14.7735
14.6634
14.5488
14.4363
14.3281
14.2244
14.1246
14.0285
13.9358
13.8464
13.7603
13.6774
13.5978
13.5215
13.4483
13.3781
13.3112
14.8524
14.7644
14.6512
14.5353
14.4227
14.315
14.2121
14.1134
14.0184
13.9266
13.8381
13.7527
13.6705
13.5914
13.5156
13.4427
13.3732
13.3061
14.8632
14.7852
14.6778
14.565
14.4556
14.352
14.2538
14.1599
14.0693
13.9813
13.8958
13.8127
13.7326
13.6552
13.5811
13.5094
13.4413
13.3751
14.8769
14.81
14.7122
14.6071
14.5049
14.4096
14.3206
14.2357
14.1531
14.0715
13.991
13.912
13.8352
13.7605
13.6888
13.6193
13.5534
13.4888
14.8852
14.8244
14.7311
14.6329
14.5412
14.4599
14.387
14.3182
14.2499
14.1801
14.1097
14.0394
13.9708
13.9039
13.8402
13.7783
13.721
13.6637
14.8986
14.8471
14.7626
14.6735
14.5975
14.5398
14.4956
14.4558
14.4167
14.3744
14.334
14.2948
14.2616
14.2316
14.2092
14.1878
14.1779
14.1601
14.9082
14.8613
14.7805
14.7029
14.6586
14.6545
14.6887
14.7484
14.858
14.9702
15.1421
15.2854
15.4899
15.6486
15.8692
16.0285
16.2567
16.4058
14.9254
14.8858
14.8195
14.8028
14.8812
15.1054
15.6324
16.3608
17.561
18.6676
19.9802
21.0493
22.2886
23.2395
24.3816
25.2047
26.2599
26.9588
14.9335
14.959
15.0633
15.4338
16.4394
18.7625
23.6053
29.322
36.2488
42.1485
48.0109
52.6331
57.4457
61.1235
65.2601
68.3199
72.0563
74.67
14.9952
15.725
17.2535
20.7659
29.8418
53.3638
93.7846
133.541
166.767
191.606
213.559
230.637
248.148
262.09
278.505
291.432
308.131
320.736
16.4589
25.2486
37.3959
67.6098
171.922
464.024
838.137
1107.71
1258.74
1359.38
1445.17
1513.76
1574.55
1625.56
1680.34
1725.87
1779.35
1817.91
49.7563
151.443
293.758
681.938
3563.22
7851.75
9597.48
9344.02
8687.38
8087.68
7610.45
7230.85
6937.81
6714.11
6531.54
6381.57
6252.01
6133.05
1061.43
2634.07
5486.94
13245.5
57119.8
62984
51796.8
33262.3
22695.3
17326.8
14735.7
13473.5
12843.9
12525
12317.4
12171.3
12010.2
11874.7
0.00492117
0.0093752
0.0258162
0.0745665
0.182542
0.337962
0.516599
0.700087
0.875263
1.03244
1.16619
1.27183
1.3493
1.38873
1.39958
1.38877
1.3509
1.28581
1.19603
1.08621
0.963477
0.836659
0.714938
0.607281
0.522606
0.462874
0.43979
0.450995
0.502889
0.625025
0.830682
1.07939
1.33634
1.58561
1.82326
2.05173
2.27625
2.50277
2.73692
2.98349
3.24655
3.52831
3.82702
4.13067
4.41805
4.64096
4.77181
4.82822
4.81716
4.7802
4.77211
4.80234
4.89831
5.14833
5.88395
7.58352
10.5566
15.1574
21.6
29.7987
39.6705
51.1547
64.1782
78.653
94.4838
111.572
129.818
149.128
169.408
190.565
212.509
235.143
258.367
282.082
306.202
330.654
355.364
380.264
405.285
430.365
455.444
480.465
505.375
530.123
554.66
578.938
602.906
626.512
649.706
672.436
694.652
716.302
737.336
757.703
777.353
796.237
814.305
831.51
847.807
863.148
877.49
890.788
903.004
914.103
924.055
932.836
940.416
946.803
951.998
955.958
958.699
960.267
960.673
959.882
957.955
954.874
950.701
945.435
939.097
931.728
923.354
914.011
903.736
892.57
880.553
867.73
854.148
839.853
824.896
809.327
793.2
776.565
759.478
741.989
724.156
706.031
687.668
669.12
650.44
631.677
612.883
594.107
575.397
556.796
538.349
520.095
502.072
484.315
466.857
449.726
432.948
416.546
400.541
384.948
369.782
355.052
340.767
326.932
313.561
300.71
288.647
277.782
268.032
259.182
251.228
244.274
238.348
233.571
229.765
227.109
226.03
227.796
233.216
240.107
247.201
253.658
260.637
263.539
269.804
246.473
0.0119664
0.0186598
0.0578953
0.150925
0.305418
0.464212
0.603597
0.720964
0.819122
0.902062
0.970545
1.02626
1.07049
1.10043
1.12038
1.13748
1.14725
1.14189
1.1131
1.05656
0.973514
0.87089
0.758382
0.652548
0.569505
0.519157
0.505894
0.545432
0.658881
0.860537
1.12194
1.40776
1.70495
2.00557
2.31063
2.6262
2.96216
3.33074
3.74577
4.22212
4.77463
5.41536
6.14863
6.96565
7.84183
8.74013
9.65627
10.6072
11.6692
12.9482
14.5381
16.4981
18.8642
21.684
25.0187
28.8591
33.1217
37.7245
42.5444
47.4876
52.5281
57.6425
62.8191
68.0483
73.3244
78.6433
84.0022
89.3992
94.8329
100.303
105.81
111.354
116.922
122.487
128.017
133.511
138.963
144.371
149.73
155.034
160.281
165.463
170.58
175.627
180.603
185.509
190.342
195.098
199.77
204.353
208.841
213.226
217.504
221.668
225.712
229.63
233.418
237.071
240.584
243.954
247.177
250.251
253.179
255.96
258.602
261.107
263.478
265.708
267.798
269.743
271.548
273.216
274.745
276.131
277.372
278.462
279.399
280.182
280.814
281.297
281.634
281.828
281.883
281.803
281.59
281.247
280.781
280.193
279.489
278.673
277.749
276.723
275.6
274.383
273.077
271.689
270.223
268.683
267.074
265.4
263.666
261.877
260.038
258.152
256.225
254.259
252.259
250.229
248.171
246.089
243.986
241.863
239.724
237.57
235.403
233.224
231.035
228.838
226.638
224.453
222.325
220.307
218.395
216.563
214.81
213.152
211.599
210.172
208.855
207.672
206.692
206.11
206.034
206.231
206.43
206.659
206.664
206.982
206.609
203.226
0.0129285
0.0575003
0.185729
0.412426
0.638336
0.773578
0.848055
0.888444
0.912794
0.93072
0.946413
0.96201
0.97844
0.993014
1.00767
1.02361
1.03891
1.05169
1.05849
1.05559
1.04031
1.01243
0.975354
0.936329
0.912831
0.929679
1.00654
1.15634
1.37243
1.63351
1.92429
2.24775
2.60952
3.01558
3.47426
3.997
4.5973
5.28967
6.08798
7.004
8.04363
9.2004
10.4547
11.7766
13.1342
14.5263
15.9675
17.4794
19.0864
20.8145
22.6986
24.787
27.0931
29.6069
32.2931
35.1071
37.9948
40.8998
43.8184
46.7451
49.6912
52.6621
55.6631
58.6989
61.769
64.8736
68.0122
71.1854
74.3883
77.6168
80.8651
84.1263
87.398
90.6848
93.9949
97.3268
100.677
104.042
107.418
110.804
114.195
117.589
120.984
124.374
127.757
131.126
134.476
137.804
141.106
144.378
147.617
150.819
153.98
157.098
160.169
163.189
166.155
169.065
171.915
174.702
177.427
180.086
182.68
185.206
187.665
190.056
192.375
194.62
196.789
198.88
200.892
202.822
204.669
206.43
208.102
209.683
211.171
212.566
213.866
215.073
216.184
217.201
218.124
218.952
219.687
220.329
220.879
221.337
221.705
221.982
222.171
222.274
222.292
222.225
222.075
221.846
221.54
221.155
220.697
220.166
219.564
218.893
218.156
217.355
216.492
215.57
214.589
213.554
212.465
211.325
210.136
208.899
207.617
206.291
204.923
203.515
202.068
200.586
199.074
197.542
196.004
194.479
192.969
191.469
189.976
188.496
187.037
185.606
184.204
182.841
181.545
180.394
179.427
178.594
177.79
177.057
176.238
175.788
175.171
174.747
0.0511999
0.201849
0.550671
0.946707
1.11098
1.14161
1.12425
1.09554
1.06897
1.049
1.03656
1.03061
1.03013
1.0343
1.04171
1.0524
1.06669
1.08317
1.10075
1.11857
1.13663
1.1569
1.18471
1.22983
1.30694
1.43288
1.61897
1.86613
2.16529
2.50857
2.89942
3.34631
3.86021
4.45126
5.12941
5.90506
6.78385
7.76508
8.84021
9.99813
11.2219
12.4843
13.7587
15.0422
16.3444
17.6683
19.0278
20.4473
21.9679
23.6161
25.3976
27.3114
29.3538
31.4951
33.7244
36.0176
38.3565
40.7277
43.131
45.5675
48.0425
50.5563
53.1122
55.7124
58.3563
61.0431
63.7697
66.5361
69.3409
72.1801
75.0518
77.9536
80.8847
83.8443
86.8315
89.8435
92.8775
95.9307
99.0002
102.083
105.177
108.278
111.384
114.49
117.595
120.694
123.784
126.861
129.924
132.969
135.993
138.992
141.965
144.908
147.818
150.692
153.528
156.324
159.076
161.785
164.445
167.057
169.618
172.125
174.577
176.97
179.302
181.57
183.772
185.905
187.968
189.958
191.873
193.709
195.467
197.142
198.735
200.243
201.666
203.003
204.252
205.415
206.489
207.476
208.374
209.183
209.905
210.538
211.084
211.543
211.914
212.2
212.402
212.519
212.553
212.506
212.379
212.172
211.889
211.529
211.094
210.586
210.007
209.359
208.644
207.863
207.018
206.112
205.146
204.121
203.041
201.906
200.719
199.482
198.195
196.862
195.484
194.064
192.607
191.118
189.604
188.075
186.531
184.974
183.403
181.82
180.231
178.64
177.052
175.471
173.915
172.421
171.013
169.681
168.383
167.162
165.932
164.988
164.153
163.802
0.256355
0.591068
1.22917
1.48252
1.44473
1.36345
1.29154
1.23523
1.19281
1.16197
1.141
1.1285
1.12341
1.12517
1.13242
1.14584
1.16613
1.19329
1.22816
1.27232
1.32864
1.402
1.49983
1.63213
1.81
2.04288
2.3352
2.68559
3.09165
3.55624
4.08786
4.69756
5.393
6.17726
7.04752
7.99339
9.00195
10.0631
11.1699
12.3002
13.4291
14.5573
15.6926
16.8396
18.0167
19.2554
20.5788
22.0007
23.5243
25.1495
26.8738
28.6893
30.5887
32.5625
34.6051
36.7085
38.8684
41.0828
43.3507
45.6716
48.0474
50.4781
52.9642
55.5032
58.0946
60.7387
63.4323
66.174
68.9617
71.7931
74.666
77.5784
80.5284
83.5139
86.5324
89.5811
92.6569
95.757
98.8782
102.017
105.171
108.337
111.51
114.689
117.869
121.048
124.222
127.388
130.544
133.686
136.811
139.916
142.998
146.055
149.083
152.078
155.04
157.964
160.848
163.69
166.486
169.235
171.933
174.577
177.165
179.694
182.16
184.561
186.894
189.157
191.347
193.461
195.497
197.452
199.325
201.114
202.817
204.432
205.958
207.394
208.739
209.993
211.154
212.222
213.197
214.077
214.865
215.559
216.16
216.667
217.081
217.404
217.636
217.777
217.829
217.793
217.67
217.462
217.169
216.793
216.336
215.8
215.185
214.495
213.731
212.895
211.988
211.014
209.973
208.869
207.703
206.476
205.192
203.853
202.46
201.015
199.521
197.981
196.398
194.776
193.12
191.434
189.721
187.982
186.219
184.432
182.626
180.805
178.973
177.134
175.301
173.493
171.73
170.014
168.332
166.721
165.143
163.786
162.633
161.781
0.719336
1.28244
1.9136
1.8331
1.65681
1.5218
1.42609
1.35834
1.31034
1.277
1.25514
1.24314
1.24022
1.24601
1.26055
1.28479
1.31978
1.36719
1.42955
1.51055
1.61531
1.7506
1.92472
2.14662
2.42454
2.76347
3.16586
3.63124
4.15913
4.75264
5.41614
6.15155
6.95548
7.81833
8.72967
9.68278
10.6722
11.68
12.6846
13.684
14.6882
15.7096
16.7715
17.893
19.0878
20.3651
21.7275
23.1775
24.7137
26.3332
28.032
29.806
31.6526
33.5695
35.5555
37.6097
39.7329
41.925
44.1874
46.5188
48.9194
51.3904
53.9299
56.5366
59.2092
61.9462
64.7454
67.6047
70.522
73.4948
76.5208
79.5974
82.7219
85.8915
89.103
92.3533
95.6387
98.9558
102.301
105.67
109.06
112.467
115.886
119.315
122.75
126.186
129.621
133.052
136.474
139.885
143.282
146.66
150.016
153.348
156.651
159.923
163.16
166.358
169.516
172.628
175.692
178.705
181.663
184.563
187.401
190.173
192.877
195.51
198.067
200.547
202.945
205.26
207.488
209.627
211.674
213.627
215.485
217.246
218.907
220.468
221.928
223.285
224.538
225.688
226.733
227.674
228.509
229.239
229.865
230.387
230.804
231.119
231.331
231.443
231.454
231.367
231.182
230.901
230.526
230.058
229.499
228.851
228.116
227.296
226.393
225.41
224.349
223.212
222.002
220.72
219.37
217.953
216.473
214.932
213.331
211.675
209.965
208.204
206.396
204.543
202.65
200.719
198.753
196.754
194.724
192.664
190.578
188.469
186.341
184.199
182.051
179.911
177.793
175.706
173.652
171.662
169.728
167.98
166.437
164.975
1.36448
2.10999
2.40639
2.08381
1.83317
1.67019
1.56217
1.48889
1.43878
1.40583
1.3868
1.38
1.38456
1.40041
1.42838
1.47001
1.52752
1.604
1.70354
1.83131
1.9936
2.19769
2.45115
2.76097
3.1317
3.56576
4.06258
4.61998
5.23566
5.90734
6.6313
7.40119
8.21224
9.0632
9.94677
10.8459
11.7456
12.6447
13.5532
14.4867
15.4625
16.4917
17.5841
18.748
19.9879
21.3059
22.7025
24.1772
25.7284
27.3544
29.0538
30.8261
32.6714
34.5909
36.5863
38.6593
40.8128
43.0488
45.3688
47.7736
50.2638
52.8396
55.5001
58.2442
61.0705
63.9774
66.9628
70.0245
73.16
76.3668
79.6419
82.9821
86.3842
89.8444
93.3591
96.9241
100.535
104.188
107.878
111.601
115.351
119.126
122.919
126.727
130.544
134.368
138.194
142.017
145.835
149.643
153.437
157.213
160.968
164.698
168.398
172.066
175.696
179.286
182.831
186.327
189.768
193.153
196.474
199.729
202.913
206.022
209.053
212
214.86
217.63
220.307
222.886
225.366
227.742
230.013
232.176
234.228
236.168
237.994
239.704
241.297
242.772
244.128
245.365
246.481
247.476
248.351
249.105
249.74
250.255
250.651
250.929
251.091
251.137
251.069
250.889
250.597
250.197
249.689
249.076
248.359
247.542
246.625
245.613
244.506
243.308
242.022
240.65
239.196
237.662
236.051
234.367
232.613
230.791
228.905
226.957
224.951
222.89
220.778
218.617
216.411
214.163
211.875
209.551
207.192
204.8
202.378
199.928
197.455
194.964
192.46
189.954
187.459
184.986
182.543
180.159
177.837
175.673
173.706
171.646
2.02112
2.88633
2.77557
2.30637
2.01108
1.82928
1.71241
1.6353
1.58552
1.55609
1.54349
1.54537
1.56134
1.59175
1.63819
1.70306
1.7895
1.90158
2.04424
2.2232
2.44473
2.71509
3.03984
3.42246
3.86431
4.36396
4.91752
5.51985
6.16524
6.84875
7.56871
8.32629
9.11385
9.91627
10.7252
11.5427
12.3765
13.2381
14.1388
15.0864
16.0896
17.155
18.288
19.492
20.7689
22.1194
23.5439
25.0423
26.6145
28.2609
29.9825
31.7807
33.6581
35.6177
37.6627
39.7971
42.0245
44.3483
46.7712
49.2952
51.9219
54.6519
57.4854
60.4216
63.4597
66.5981
69.8349
73.168
76.5947
80.1122
83.717
87.4052
91.1726
95.0149
98.9271
102.904
106.941
111.033
115.173
119.355
123.576
127.828
132.107
136.406
140.72
145.045
149.374
153.704
158.03
162.346
166.649
170.934
175.195
179.43
183.632
187.796
191.919
195.994
200.017
203.982
207.884
211.717
215.478
219.159
222.757
226.267
229.685
233.004
236.223
239.335
242.337
245.226
247.998
250.649
253.176
255.576
257.847
259.987
261.993
263.863
265.598
267.194
268.651
269.968
271.146
272.183
273.079
273.837
274.455
274.934
275.277
275.483
275.554
275.493
275.301
274.979
274.531
273.957
273.261
272.445
271.512
270.465
269.306
268.039
266.666
265.191
263.618
261.95
260.189
258.34
256.406
254.391
252.298
250.132
247.895
245.591
243.225
240.8
238.319
235.787
233.207
230.582
227.915
225.21
222.468
219.692
216.885
214.051
211.193
208.316
205.425
202.529
199.64
196.769
193.926
191.137
188.411
185.818
183.386
180.784
2.57567
3.55754
3.12014
2.54413
2.20572
2.00471
1.87953
1.80099
1.75399
1.73077
1.72695
1.74027
1.77079
1.81921
1.8878
1.97949
2.098
2.24775
2.43368
2.66083
2.93402
3.25731
3.63297
4.06125
4.54022
5.06567
5.63193
6.23468
6.87277
7.54528
8.24507
8.96054
9.68878
10.4334
11.1998
11.9947
12.8248
13.6968
14.6176
15.5932
16.6287
17.7282
18.8948
20.1306
21.4373
22.8161
24.2684
25.7954
27.3988
29.0809
30.8444
32.6927
34.6298
36.6601
38.7885
41.0198
43.3589
45.8103
48.3781
51.0655
53.8752
56.8094
59.8686
63.0529
66.3619
69.7945
73.3488
77.0227
80.8132
84.7178
88.7332
92.8533
97.0733
101.388
105.791
110.276
114.837
119.467
124.159
128.906
133.7
138.532
143.397
148.29
153.205
158.136
163.076
168.02
172.962
177.895
182.815
187.715
192.589
197.431
202.235
206.995
211.704
216.356
220.945
225.465
229.909
234.272
238.547
242.729
246.811
250.788
254.654
258.405
262.035
265.539
268.912
272.15
275.249
278.206
281.015
283.675
286.183
288.534
290.729
292.764
294.638
296.35
297.899
299.284
300.505
301.562
302.455
303.186
303.754
304.162
304.41
304.502
304.437
304.219
303.851
303.334
302.671
301.866
300.921
299.84
298.626
297.282
295.812
294.22
292.51
290.685
288.75
286.709
284.566
282.324
279.989
277.565
275.055
272.464
269.798
267.06
264.254
261.387
258.461
255.481
252.452
249.377
246.261
243.106
239.915
236.693
233.441
230.163
226.864
223.547
220.219
216.887
213.562
210.255
206.98
203.759
200.605
197.571
194.686
191.542
3.02112
4.19534
3.48315
2.79632
2.41327
2.19388
2.06274
1.98458
1.94245
1.92755
1.93405
1.96083
2.00776
2.07584
2.16767
2.28639
2.43575
2.61988
2.84253
3.10683
3.41556
3.76985
4.16971
4.61351
5.09775
5.61967
6.17834
6.77026
7.38774
8.0235
8.67703
9.35212
10.0518
10.7802
11.5415
12.341
13.1838
14.0751
15.0198
16.0219
17.0852
18.2127
19.4074
20.6715
22.0076
23.4179
24.9053
26.4725
28.123
29.8605
31.6895
33.615
35.6424
37.7777
40.027
42.396
44.8907
47.5166
50.279
53.1823
56.231
59.4299
62.7796
66.2799
69.9311
73.7324
77.6821
81.7771
86.0127
90.381
94.8763
99.5004
104.249
109.117
114.096
119.178
124.356
129.621
134.966
140.381
145.858
151.391
156.971
162.586
168.228
173.888
179.56
185.235
190.906
196.566
202.208
207.825
213.408
218.952
224.449
229.891
235.271
240.581
245.814
250.964
256.021
260.981
265.834
270.574
275.195
279.689
284.05
288.272
292.35
296.276
300.047
303.657
307.101
310.375
313.475
316.397
319.139
321.697
324.069
326.253
328.247
330.051
331.663
333.084
334.313
335.35
336.196
336.853
337.322
337.605
337.703
337.62
337.358
336.92
336.309
335.529
334.583
333.474
332.208
330.787
329.216
327.5
325.642
323.648
321.522
319.269
316.894
314.401
311.796
309.083
306.267
303.354
300.349
297.256
294.082
290.832
287.511
284.125
280.679
277.178
273.628
270.034
266.399
262.73
259.028
255.299
251.545
247.77
243.98
240.177
236.368
232.56
228.763
224.989
221.25
217.568
213.957
210.457
207.104
203.416
3.37241
4.83517
3.84767
3.05233
2.62772
2.39269
2.25728
2.18129
2.14557
2.13969
2.15765
2.19848
2.2619
2.34892
2.46206
2.60415
2.77843
2.98815
3.23593
3.52285
3.84745
4.2104
4.61267
5.05239
5.5299
6.04101
6.57827
7.13755
7.71916
8.32525
8.95743
9.61812
10.3106
11.0385
11.8059
12.6171
13.4762
14.3872
15.354
16.3802
17.4693
18.6247
19.8497
21.1477
22.5225
23.9779
25.5185
27.1486
28.8731
30.6974
32.6271
34.6688
36.8295
39.1177
41.5424
44.1081
46.8213
49.6886
52.7158
55.9075
59.2657
62.7873
66.4814
70.3555
74.4116
78.6498
83.0688
87.6663
92.4378
97.3801
102.489
107.755
113.172
118.733
124.426
130.241
136.169
142.2
148.325
154.533
160.814
167.157
173.552
179.987
186.454
192.943
199.442
205.945
212.44
218.919
225.373
231.794
238.173
244.5
250.768
256.967
263.089
269.124
275.064
280.9
286.624
292.226
297.7
303.036
308.228
313.266
318.143
322.853
327.39
331.745
335.914
339.891
343.671
347.248
350.619
353.78
356.728
359.458
361.97
364.262
366.331
368.177
369.8
371.199
372.375
373.329
374.062
374.576
374.873
374.956
374.828
374.492
373.951
373.21
372.274
371.145
369.829
368.331
366.655
364.807
362.792
360.615
358.282
355.798
353.169
350.401
347.499
344.469
341.317
338.049
334.67
331.187
327.604
323.929
320.168
316.327
312.413
308.433
304.392
300.297
296.155
291.971
287.751
283.502
279.227
274.932
270.621
266.298
261.968
257.635
253.305
248.985
244.684
240.414
236.187
232.022
227.934
223.952
220.125
215.913
3.62396
5.45319
4.19894
3.30453
2.84334
2.59486
2.45654
2.38385
2.35516
2.35826
2.38743
2.4413
2.5193
2.62214
2.75196
2.91098
3.10159
3.32597
3.58554
3.88036
4.20888
4.56996
4.96407
5.3919
5.84896
6.3321
6.84162
7.37772
7.94104
8.53301
9.15591
9.81256
10.5062
11.2403
12.0184
12.8444
13.722
14.655
15.6475
16.7034
17.8269
19.0221
20.2937
21.6464
23.0857
24.6175
26.249
27.9881
29.8388
31.8071
33.8998
36.124
38.4861
40.9903
43.6386
46.4491
49.4339
52.602
55.9614
59.5189
63.2816
67.2585
71.4526
75.865
80.4953
85.3425
90.4055
95.6827
101.165
106.844
112.711
118.756
124.966
131.329
137.839
144.487
151.262
158.155
165.155
172.252
179.434
186.688
194.002
201.364
208.759
216.177
223.604
231.027
238.436
245.819
253.166
260.466
267.709
274.884
281.981
288.988
295.897
302.696
309.376
315.926
322.337
328.599
334.702
340.637
346.396
351.969
357.348
362.526
367.495
372.248
376.778
381.08
385.149
388.978
392.564
395.903
398.991
401.826
404.405
406.727
408.791
410.597
412.144
413.433
414.465
415.242
415.766
416.04
416.066
415.849
415.392
414.699
413.777
412.629
411.261
409.68
407.89
405.898
403.71
401.332
398.772
396.035
393.128
390.058
386.831
383.454
379.934
376.277
372.489
368.579
364.552
360.414
356.173
351.836
347.41
342.902
338.32
333.671
328.963
324.204
319.4
314.56
309.692
304.801
299.895
294.98
290.06
285.141
280.227
275.325
270.439
265.577
260.746
255.958
251.225
246.563
241.987
237.518
233.213
228.509
3.78666
6.04107
4.53358
3.54856
3.05399
2.79347
2.6531
2.58381
2.5617
2.57279
2.61157
2.67606
2.76528
2.87947
3.02018
3.18902
3.38757
3.61721
3.87869
4.17186
4.49678
4.85228
5.23353
5.6395
6.07273
6.53542
7.0282
7.55088
8.10463
8.69148
9.31402
9.97528
10.6785
11.4271
12.2249
13.0758
13.984
14.9541
15.9915
17.1028
18.2932
19.5674
20.931
22.3905
23.9525
25.6226
27.4038
29.2983
31.3212
33.4842
35.7977
38.2715
40.916
43.7435
46.7694
50.0023
53.4516
57.1265
61.0354
65.1857
69.5843
74.2379
79.15
84.3227
89.7476
95.4171
101.323
107.453
113.803
120.364
127.124
134.072
141.193
148.477
155.913
163.493
171.208
179.05
187.011
195.081
203.249
211.5
219.82
228.192
236.6
245.026
253.454
261.868
270.253
278.595
286.881
295.099
303.237
311.283
319.223
327.048
334.743
342.3
349.704
356.947
364.016
370.9
377.59
384.074
390.344
396.39
402.202
407.773
413.095
418.161
422.963
427.496
431.755
435.733
439.428
442.835
445.951
448.774
451.302
453.534
455.47
457.11
458.455
459.506
460.266
460.736
460.921
460.824
460.449
459.8
458.883
457.705
456.271
454.588
452.663
450.503
448.116
445.508
442.689
439.665
436.444
433.036
429.447
425.685
421.757
417.672
413.436
409.059
404.546
399.905
395.144
390.27
385.291
380.214
375.048
369.8
364.48
359.095
353.655
348.169
342.645
337.093
331.521
325.939
320.354
314.773
309.203
303.65
298.12
292.618
287.151
281.725
276.347
271.031
265.782
260.622
255.555
250.609
245.83
240.68
3.87359
6.59708
4.8467
3.77813
3.25297
2.9815
2.83917
2.77262
2.75583
2.77325
2.8193
2.89135
2.98796
3.10889
3.25515
3.42791
3.62831
3.85738
4.11586
4.40463
4.72107
5.06371
5.43334
5.8301
6.25456
6.70765
7.19237
7.71226
8.26908
8.8651
9.50376
10.1894
10.9255
11.7162
12.5658
13.4789
14.4601
15.5139
16.644
17.8519
19.1447
20.5338
22.0305
23.6462
25.3923
27.2802
29.3225
31.5326
33.9193
36.4933
39.2656
42.248
45.4534
48.8969
52.5981
56.5669
60.8078
65.3269
70.1293
75.2187
80.5968
86.2627
92.2099
98.4278
104.912
111.654
118.639
125.853
133.281
140.908
148.717
156.693
164.821
173.092
181.499
190.039
198.709
207.51
216.441
225.5
234.676
243.951
253.308
262.726
272.179
281.644
291.096
300.513
309.878
319.173
328.383
337.495
346.493
355.365
364.097
372.676
381.09
389.325
397.369
405.209
412.834
420.232
427.392
434.303
440.955
447.338
453.443
459.262
464.787
470.01
474.926
479.528
483.811
487.772
491.405
494.708
497.678
500.315
502.616
504.581
506.212
507.51
508.476
509.113
509.425
509.415
509.086
508.446
507.498
506.25
504.708
502.88
500.773
498.397
495.76
492.87
489.737
486.37
482.777
478.969
474.955
470.744
466.347
461.771
457.026
452.12
447.063
441.863
436.528
431.067
425.488
419.798
414.006
408.121
402.15
396.104
389.991
383.821
377.602
371.345
365.058
358.753
352.44
346.129
339.829
333.551
327.301
321.089
314.92
308.802
302.74
296.743
290.816
284.973
279.216
273.569
268.026
262.628
257.388
251.86
3.91253
7.11809
5.13341
3.9877
3.4344
3.15268
3.00811
2.94337
2.93049
2.95256
3.00356
3.08038
3.1812
3.30545
3.45382
3.62737
3.82721
4.05456
4.30968
4.59237
4.90404
5.24523
5.61662
6.01915
6.45426
6.92402
7.43097
7.97705
8.56687
9.20498
9.89214
10.6313
11.4289
12.2924
13.2289
14.2456
15.3486
16.5447
17.8413
19.2489
20.7785
22.4425
24.256
26.2363
28.3995
30.7612
33.3379
36.1475
39.2006
42.5064
46.0751
49.9177
54.0453
58.4682
63.1931
68.2278
73.582
79.2616
85.2701
91.6086
98.2753
105.265
112.567
120.17
128.058
136.215
144.621
153.252
162.084
171.092
180.249
189.531
198.915
208.381
217.92
227.527
237.21
246.984
256.869
266.877
277.011
287.26
297.61
308.033
318.493
328.948
339.364
349.712
359.97
370.118
380.141
390.022
399.747
409.3
418.669
427.838
436.795
445.523
454.011
462.246
470.216
477.908
485.311
492.416
499.211
505.688
511.837
517.651
523.124
528.247
533.016
537.427
541.474
545.155
548.465
551.404
553.97
556.162
557.982
559.43
560.509
561.221
561.569
561.558
561.192
560.476
559.415
558.017
556.289
554.239
551.875
549.205
546.24
542.99
539.464
535.672
531.627
527.338
522.817
518.075
513.123
507.972
502.634
497.118
491.435
485.596
479.612
473.491
467.243
460.877
454.401
447.824
441.157
434.407
427.583
420.695
413.75
406.758
399.728
392.671
385.598
378.519
371.447
364.392
357.366
350.382
343.447
336.573
329.766
323.036
316.387
309.831
303.369
297.02
290.777
284.674
278.682
272.876
267.2
261.381
4.02471
7.60585
5.39623
4.1779
3.59835
3.30721
3.16063
3.09759
3.08816
3.11416
3.16915
3.24969
3.35376
3.48078
3.63169
3.80795
4.01055
4.24074
4.50034
4.79064
5.11343
5.47052
5.86356
6.29397
6.76404
7.27729
7.838
8.45104
9.12001
9.84683
10.6392
11.5082
12.4623
13.5125
14.6702
15.9446
17.3443
18.8794
20.5626
22.4093
24.436
26.6607
29.1038
31.7864
34.7206
37.9176
41.3882
45.1438
49.1991
53.5692
58.2671
63.3051
68.6935
74.4407
80.5524
87.0325
93.8834
101.105
108.695
116.648
124.956
133.606
142.584
151.871
161.446
171.288
181.375
191.68
202.177
212.836
223.625
234.511
245.46
256.441
267.433
278.425
289.423
300.445
311.51
322.64
333.851
345.139
356.492
367.879
379.249
390.552
401.752
412.823
423.742
434.491
445.053
455.414
465.559
475.474
485.143
494.552
503.688
512.537
521.085
529.322
537.237
544.818
552.056
558.942
565.466
571.621
577.4
582.796
587.805
592.42
596.64
600.46
603.878
606.893
609.503
611.709
613.511
614.911
615.91
616.513
616.724
616.544
615.983
615.041
613.728
612.048
610.009
607.621
604.89
601.826
598.439
594.738
590.736
586.443
581.87
577.029
571.931
566.589
561.015
555.223
549.224
543.031
536.656
530.112
523.41
516.563
509.582
502.477
495.257
487.933
480.515
473.013
465.435
457.791
450.089
442.338
434.546
426.723
418.88
411.028
403.176
395.336
387.519
379.739
372.007
364.336
356.738
349.225
341.804
334.489
327.282
320.199
313.236
306.418
299.726
293.211
286.809
280.651
274.573
268.555
4.66353
8.05061
5.6107
4.32979
3.73034
3.43403
3.28879
3.23043
3.22713
3.25943
3.32129
3.40899
3.52046
3.65533
3.81494
4.00084
4.21561
4.46261
4.74555
5.06706
5.4316
5.84576
6.31402
6.83372
7.40603
8.03883
8.74249
9.52563
10.3905
11.3445
12.405
13.5875
14.9071
16.378
18.0139
19.8294
21.8404
24.0651
26.524
29.2397
32.2358
35.5334
39.1506
43.1055
47.4186
52.1001
57.1582
62.6013
68.4354
74.6629
81.2829
88.2942
95.6942
103.478
111.64
120.172
129.063
138.304
147.882
157.784
167.993
178.491
189.257
200.269
211.505
222.941
234.558
246.334
258.244
270.259
282.351
294.495
306.662
318.828
330.981
343.12
355.255
367.397
379.554
391.735
403.927
416.097
428.189
440.15
451.942
463.547
474.951
486.141
497.102
507.821
518.286
528.484
538.402
548.028
557.35
566.354
575.03
583.367
591.353
598.982
606.243
613.128
619.631
625.743
631.459
636.772
641.676
646.17
650.248
653.91
657.154
659.978
662.381
664.365
665.929
667.077
667.812
668.139
668.06
667.579
666.703
665.438
663.789
661.764
659.369
656.612
653.503
650.049
646.26
642.145
637.715
632.98
627.951
622.639
617.056
611.213
605.123
598.797
592.249
585.491
578.537
571.398
564.087
556.618
549.001
541.248
533.373
525.388
517.303
509.131
500.882
492.566
484.193
475.772
467.311
458.818
450.303
441.774
433.239
424.708
416.192
407.701
399.249
390.846
382.506
374.244
366.072
358.005
350.054
342.232
334.544
327.008
319.617
312.402
305.331
298.476
291.731
285.298
278.878
272.758
5.49042
8.35569
5.7613
4.43764
3.82906
3.53603
3.40038
3.35501
3.36591
3.41284
3.491
3.59578
3.72569
3.88247
4.06989
4.29201
4.55204
4.86106
5.23436
5.66384
6.15172
6.71464
7.35649
8.06904
8.86386
9.76142
10.7782
11.9274
13.2257
14.6987
16.3732
18.2734
20.4219
22.8413
25.5558
28.5926
31.9774
35.735
39.8906
44.4711
49.5125
55.0273
61.0116
67.4585
74.3578
81.7034
89.4908
97.7057
106.318
115.302
124.639
134.308
144.291
154.566
165.114
175.915
186.951
198.204
209.658
221.298
233.107
245.071
257.174
269.404
281.746
294.184
306.704
319.284
331.898
344.518
357.118
369.683
382.198
394.653
407.055
419.421
431.77
444.13
456.495
468.819
481.024