/*--------------------------------*- C++ -*----------------------------------*\
| =========                 |                                                 |
| \\      /  F ield         | OpenFOAM: The Open Source CFD Toolbox           |
|  \\    /   O peration     | Version:  2312                                  |
|   \\  /    A nd           | Website:  www.openfoam.com                      |
|    \\/     M anipulation  |                                                 |
\*---------------------------------------------------------------------------*/
FoamFile
{
    version     2.0;
    format      ascii;
    arch        "LSB;label=32;scalar=64";
    class       volScalarField;
    location    "0.2";
    object      k;
}
// * * * * * * * * * * * * * * * * * * * * * * * * * * * * * * * * * * * * * //

dimensions      [0 2 -2 0 0 0 0];

internalField   nonuniform List<scalar> 
12225
(
0.590231
1.73586
9.60109
9.41042
7.28465
4.97031
3.83485
3.30315
3.07107
2.97897
2.93338
2.90909
2.88307
2.86014
2.85164
2.82546
2.87062
2.79983
0.384741
0.483397
1.9294
3.34114
3.63453
3.59387
3.5273
3.44242
3.35065
3.27485
3.21025
3.16514
3.1209
3.09055
3.05445
3.03857
3.00543
2.99893
0.376455
0.385439
0.51633
0.838451
1.1275
1.23424
1.38149
1.50091
1.59677
1.69156
1.78231
1.86718
1.93179
1.97648
2.01745
2.05041
2.07701
2.1178
0.375595
0.378316
0.39522
0.434214
0.500766
0.536966
0.563709
0.594861
0.619437
0.660615
0.697006
0.750034
0.786684
0.833697
0.861019
0.906239
0.93169
0.985384
0.375857
0.377926
0.38284
0.391123
0.403551
0.410937
0.413051
0.414362
0.415035
0.417142
0.420368
0.426414
0.430292
0.436605
0.440403
0.447781
0.452689
0.464718
0.376559
0.377547
0.379803
0.382746
0.386118
0.388013
0.387798
0.387
0.385508
0.383745
0.382233
0.380586
0.378452
0.376257
0.373763
0.371317
0.369488
0.369456
0.376264
0.376787
0.377393
0.378985
0.380715
0.381726
0.381414
0.380626
0.379411
0.377703
0.376172
0.374449
0.372619
0.370387
0.368072
0.36565
0.363611
0.362023
0.374851
0.374411
0.375235
0.376932
0.37839
0.379418
0.379121
0.378356
0.377142
0.375355
0.373745
0.372207
0.370792
0.369225
0.367706
0.366167
0.364804
0.363503
0.375124
0.374967
0.375757
0.376925
0.377832
0.378524
0.3783
0.377576
0.376236
0.374087
0.372114
0.370491
0.369206
0.368073
0.367126
0.366259
0.365412
0.364478
0.375667
0.375137
0.375691
0.376524
0.376932
0.377585
0.37754
0.377078
0.375953
0.373501
0.371031
0.369147
0.367818
0.366889
0.366256
0.365774
0.365172
0.364382
0.37548
0.375928
0.375222
0.374848
0.374972
0.37563
0.376128
0.375946
0.37515
0.372953
0.3702
0.368153
0.366796
0.365987
0.365516
0.365166
0.364538
0.363636
0.376811
0.376252
0.374343
0.372678
0.372695
0.373419
0.37409
0.374014
0.373415
0.37154
0.369071
0.36726
0.366113
0.365478
0.36512
0.364753
0.363995
0.362783
0.376259
0.376258
0.374205
0.371518
0.371092
0.371299
0.371549
0.371449
0.370903
0.369286
0.367431
0.36612
0.365351
0.364954
0.364689
0.3643
0.363451
0.361902
0.375659
0.375202
0.37309
0.371539
0.370527
0.369813
0.369429
0.369042
0.368246
0.366834
0.365454
0.364512
0.364034
0.363815
0.363603
0.3632
0.362282
0.360505
0.376189
0.376138
0.375593
0.374056
0.371259
0.368823
0.367464
0.366868
0.366345
0.365262
0.363823
0.362695
0.362059
0.361743
0.361434
0.360854
0.359574
0.357866
0.375061
0.374144
0.372632
0.371738
0.370635
0.368609
0.366772
0.365564
0.364525
0.363333
0.362114
0.361188
0.360584
0.360099
0.359427
0.358395
0.357046
0.355518
0.375538
0.374884
0.375479
0.376022
0.375593
0.37331
0.368915
0.365493
0.363209
0.361895
0.361282
0.361082
0.361018
0.3609
0.360535
0.359514
0.358236
0.356842
0.374991
0.373641
0.373441
0.373431
0.372966
0.371152
0.3682
0.36548
0.363265
0.36168
0.360668
0.360045
0.359709
0.35949
0.359349
0.359107
0.358737
0.358277
0.374295
0.373608
0.372419
0.37066
0.370012
0.36986
0.369348
0.367373
0.364511
0.362341
0.360525
0.358738
0.356955
0.355347
0.354123
0.353387
0.353112
0.353066
0.374786
0.373637
0.371581
0.369889
0.369389
0.369024
0.368306
0.367326
0.366274
0.365207
0.363976
0.362342
0.360252
0.357899
0.355585
0.353575
0.352056
0.351102
0.374848
0.373799
0.371848
0.369832
0.367672
0.366619
0.366572
0.366926
0.367763
0.367933
0.36776
0.367004
0.364891
0.362087
0.359265
0.356664
0.35451
0.35293
0.375181
0.37442
0.37299
0.370802
0.367988
0.366696
0.366685
0.367312
0.369374
0.370636
0.370832
0.37063
0.36976
0.367328
0.364198
0.361226
0.358654
0.356611
0.375632
0.374219
0.373802
0.373283
0.370718
0.36827
0.36806
0.368567
0.370814
0.373317
0.374012
0.373926
0.3733
0.371266
0.368151
0.365331
0.362983
0.361046
0.37519
0.374429
0.374889
0.374835
0.372942
0.370104
0.369776
0.370195
0.371814
0.374468
0.375224
0.375132
0.374615
0.373138
0.370814
0.368677
0.366891
0.365295
0.375938
0.375085
0.374962
0.37576
0.376207
0.375828
0.375137
0.375216
0.375713
0.377404
0.3778
0.377576
0.376891
0.375365
0.373584
0.371919
0.370594
0.369231
0.376058
0.375613
0.374027
0.374215
0.37569
0.378032
0.381185
0.384814
0.388163
0.390494
0.390574
0.390173
0.388891
0.387565
0.387199
0.387238
0.387775
0.388166
0.376396
0.376068
0.374434
0.37502
0.380673
0.39398
0.420375
0.447843
0.470999
0.487599
0.49965
0.50503
0.511258
0.517385
0.530422
0.545436
0.567812
0.587418
0.375378
0.376434
0.380049
0.393282
0.46375
0.61211
0.83804
0.998261
1.09019
1.17375
1.24249
1.29026
1.33654
1.38541
1.45032
1.51709
1.59265
1.65856
0.37749
0.397867
0.461888
0.66997
1.69086
2.79231
3.50353
3.57019
3.5552
3.51098
3.46087
3.41963
3.39087
3.37219
3.35542
3.34262
3.32695
3.31236
0.50129
1.06151
1.82237
3.37872
9.2225
9.97503
8.777
6.48083
4.95164
4.08296
3.6359
3.41248
3.29968
3.24091
3.20046
3.17034
3.13789
3.11124
6.06487e-07
4.54072e-06
1.59054e-05
6.06969e-05
0.000182773
0.000405636
0.000703603
0.00104714
0.00140929
0.00176862
0.00211049
0.00242375
0.00270241
0.00294416
0.00314669
0.0033109
0.00343883
0.00353284
0.00359528
0.00363377
0.00364452
0.00364184
0.00363578
0.00362491
0.00362384
0.00363288
0.00366134
0.00372373
0.00383309
0.00400025
0.00423459
0.00454385
0.00493295
0.00540181
0.00594443
0.00655229
0.00721346
0.00791608
0.00865091
0.0094135
0.010204
0.0110302
0.0119019
0.0128355
0.0138419
0.0149137
0.0159858
0.0169173
0.0175321
0.0176009
0.0175082
0.0174608
0.0175407
0.0178197
0.0183092
0.018981
0.0204684
0.025
0.0368289
0.0548084
0.0768855
0.101911
0.129148
0.157979
0.187936
0.218642
0.2498
0.281181
0.312607
0.343934
0.375049
0.405854
0.436267
0.466214
0.495608
0.524432
0.552669
0.580308
0.607343
0.633776
0.659609
0.684846
0.709493
0.733553
0.757025
0.77991
0.802209
0.823918
0.845022
0.865506
0.885353
0.904543
0.923053
0.940862
0.957947
0.974287
0.989861
1.00465
1.01864
1.03182
1.04416
1.05567
1.06632
1.07612
1.08506
1.09312
1.10026
1.10647
1.11172
1.11599
1.11928
1.12131
1.12223
1.12248
1.12133
1.11908
1.11563
1.11096
1.10505
1.09789
1.08946
1.07978
1.06886
1.05673
1.04346
1.02909
1.01372
0.997434
0.980336
0.96254
0.944157
0.925317
0.90616
0.886789
0.867315
0.847841
0.828452
0.809231
0.790246
0.771543
0.753159
0.735114
0.717416
0.700061
0.683036
0.666321
0.649891
0.633719
0.617778
0.602041
0.586487
0.5711
0.555869
0.540792
0.525874
0.511125
0.496566
0.482219
0.468113
0.454277
0.440742
0.427537
0.414688
0.402215
0.390135
0.378453
0.367172
0.356283
0.345765
0.335606
0.326092
0.320594
0.322887
0.327461
0.331968
0.336131
0.340045
0.342009
0.344971
0.323331
3.1405e-06
2.37719e-05
0.000158452
0.000565149
0.00148823
0.00291524
0.00456971
0.00624523
0.00780151
0.00916554
0.0103139
0.0112477
0.0119864
0.0125552
0.0129741
0.013273
0.0134722
0.0135919
0.0136525
0.0136727
0.0136804
0.0136999
0.0137484
0.0138516
0.0140543
0.0143963
0.0149198
0.0156648
0.0166616
0.0179288
0.0194758
0.0212988
0.0233782
0.025681
0.0281665
0.0307954
0.033535
0.0363689
0.0393042
0.0423735
0.0456367
0.0491767
0.0530827
0.0574338
0.0622374
0.0672969
0.072115
0.0758843
0.0778645
0.0787016
0.0801983
0.0839855
0.0903642
0.0990353
0.110243
0.124689
0.142942
0.165229
0.190086
0.215059
0.239993
0.264745
0.28926
0.313495
0.337436
0.361083
0.384437
0.407505
0.430301
0.452836
0.475133
0.497222
0.519178
0.541085
0.562508
0.583532
0.604183
0.624465
0.644397
0.663992
0.683261
0.702212
0.720852
0.739182
0.757196
0.774868
0.79225
0.809379
0.826225
0.842788
0.859056
0.875021
0.890674
0.906007
0.921012
0.935679
0.950003
0.963977
0.977592
0.99084
1.00371
1.01621
1.02833
1.04009
1.05154
1.0626
1.07322
1.08341
1.09316
1.10243
1.11118
1.11935
1.127
1.1342
1.1409
1.14713
1.15286
1.15808
1.16279
1.16697
1.17062
1.17373
1.1763
1.17833
1.17982
1.18079
1.18117
1.18115
1.18059
1.17956
1.17806
1.17617
1.17398
1.17145
1.1686
1.1655
1.16218
1.15867
1.15502
1.15125
1.14739
1.14346
1.13946
1.13541
1.13131
1.12716
1.12294
1.11864
1.11425
1.10976
1.10513
1.10037
1.09545
1.09038
1.08514
1.07975
1.07422
1.06856
1.06279
1.05694
1.05105
1.04512
1.03921
1.03333
1.0275
1.02175
1.01607
1.01045
1.00488
0.999311
0.993736
0.988372
0.98343
0.978183
0.972434
0.966287
0.958738
0.95233
0.940192
0.909469
4.05464e-06
7.45408e-05
0.000511862
0.00181826
0.00452845
0.00781175
0.011018
0.0138375
0.0161913
0.0181159
0.0196844
0.0209719
0.0220426
0.022948
0.0237299
0.0244256
0.0250614
0.0256629
0.0262576
0.0268745
0.0275461
0.0283086
0.0292013
0.0302681
0.0315561
0.0331109
0.0349715
0.0371653
0.0397052
0.0425913
0.0458152
0.0493644
0.0532254
0.0573842
0.0618259
0.0665402
0.0715241
0.0767905
0.0823733
0.0883193
0.0946769
0.101471
0.108657
0.116088
0.123537
0.130761
0.137643
0.144384
0.151333
0.159384
0.169138
0.180704
0.194545
0.210852
0.229883
0.251579
0.275543
0.301004
0.327024
0.353117
0.379239
0.40535
0.431436
0.457485
0.483485
0.509429
0.535309
0.561106
0.5868
0.61238
0.637818
0.663074
0.688081
0.71276
0.737377
0.761912
0.786342
0.810651
0.834828
0.85886
0.882737
0.906451
0.929996
0.953368
0.976569
0.999613
1.02246
1.04507
1.06744
1.08957
1.11144
1.13306
1.1544
1.17546
1.19622
1.21668
1.23682
1.25662
1.27608
1.29518
1.3139
1.33223
1.35015
1.36762
1.38461
1.40114
1.41724
1.43291
1.44813
1.46289
1.47717
1.49097
1.50429
1.51713
1.52948
1.54132
1.55263
1.56338
1.57356
1.58313
1.59208
1.60038
1.608
1.61492
1.62112
1.62657
1.63127
1.63521
1.63838
1.64078
1.64239
1.64322
1.64352
1.64317
1.64215
1.64056
1.63846
1.63591
1.63295
1.62964
1.62603
1.62215
1.61805
1.61374
1.60924
1.60456
1.59968
1.59461
1.58932
1.58378
1.57797
1.57187
1.56545
1.55869
1.55158
1.54412
1.53631
1.52818
1.51975
1.51106
1.50216
1.4931
1.48394
1.47473
1.46552
1.45638
1.44732
1.43837
1.42953
1.42078
1.41208
1.40347
1.39492
1.38612
1.37688
1.36722
1.35647
1.3463
1.33185
1.30256
1.67733e-05
0.00024202
0.00159581
0.00531275
0.0105743
0.0153756
0.01926
0.0222958
0.0246769
0.0265814
0.0281477
0.0294784
0.0306493
0.0317187
0.0327336
0.0337325
0.0347482
0.0358124
0.0369584
0.0382197
0.0396321
0.0412341
0.0430665
0.0451707
0.047585
0.0503421
0.0534662
0.0569717
0.0608642
0.0651438
0.0698098
0.0748634
0.080308
0.0861466
0.0923792
0.0990039
0.106013
0.113394
0.121124
0.129159
0.137417
0.145798
0.154202
0.162575
0.171016
0.179813
0.189492
0.200468
0.212968
0.227246
0.243457
0.26175
0.282133
0.304542
0.328871
0.354944
0.382467
0.411038
0.440263
0.469903
0.499846
0.530016
0.560361
0.590844
0.62143
0.652085
0.682786
0.713505
0.74421
0.774881
0.80549
0.836011
0.866422
0.896714
0.926909
0.956989
0.986933
1.01672
1.04634
1.07576
1.10499
1.13401
1.1628
1.19137
1.2197
1.24778
1.27561
1.30316
1.33043
1.3574
1.38407
1.41043
1.43645
1.46214
1.48747
1.51242
1.53699
1.56114
1.58488
1.60816
1.63099
1.65334
1.67518
1.69652
1.71733
1.7376
1.75735
1.77656
1.79524
1.81337
1.83095
1.84797
1.86444
1.88033
1.89565
1.91037
1.92447
1.93792
1.95071
1.96279
1.97414
1.98472
1.99449
2.00342
2.01147
2.0186
2.02478
2.03
2.03422
2.03744
2.03963
2.04078
2.04117
2.04063
2.03918
2.03693
2.03394
2.03029
2.02606
2.02131
2.01613
2.01058
2.00471
1.99857
1.99219
1.9856
1.97879
1.97176
1.96449
1.95695
1.94912
1.94094
1.93238
1.9234
1.91397
1.90407
1.89369
1.88283
1.87152
1.8598
1.84772
1.83536
1.82278
1.81008
1.79735
1.78467
1.77212
1.75975
1.74761
1.73569
1.724
1.71253
1.70122
1.68988
1.67832
1.66651
1.65399
1.64177
1.62651
1.60029
9.46476e-05
0.000732427
0.00432255
0.0119565
0.0188462
0.0239773
0.0277535
0.030617
0.032871
0.0347152
0.0362865
0.0376833
0.0389806
0.0402387
0.0415089
0.0428343
0.0442549
0.0458107
0.0475393
0.0494784
0.0516654
0.0541382
0.0569336
0.0600853
0.0636224
0.0675674
0.0719357
0.0767351
0.0819678
0.0876327
0.0937262
0.100242
0.107168
0.114492
0.122193
0.13024
0.138589
0.147177
0.155926
0.164775
0.173703
0.182799
0.192287
0.202571
0.213999
0.226766
0.241082
0.257118
0.275017
0.294819
0.3165
0.339993
0.365185
0.391957
0.420182
0.449716
0.480384
0.511992
0.544355
0.577329
0.610808
0.644706
0.678956
0.713505
0.748301
0.783297
0.818455
0.853736
0.889107
0.924535
0.959984
0.995423
1.03082
1.06616
1.10141
1.13654
1.17153
1.20634
1.24095
1.27534
1.30948
1.34337
1.37698
1.4103
1.44333
1.47605
1.50844
1.5405
1.57223
1.6036
1.63461
1.66524
1.69548
1.72531
1.75471
1.78367
1.81215
1.84015
1.86764
1.89459
1.92098
1.9468
1.97202
1.99662
2.02059
2.04392
2.06661
2.08865
2.11003
2.13076
2.15083
2.17025
2.18901
2.20711
2.22454
2.2413
2.25736
2.2727
2.28731
2.30114
2.31416
2.32634
2.33761
2.34793
2.35725
2.36552
2.3727
2.37872
2.38357
2.38721
2.38957
2.39068
2.39082
2.38972
2.38749
2.38421
2.37997
2.37486
2.36898
2.36243
2.3553
2.34769
2.33969
2.33137
2.32279
2.31398
2.30498
2.29578
2.28638
2.27675
2.26685
2.25662
2.24601
2.23496
2.2234
2.2113
2.19861
2.18532
2.17142
2.15694
2.14194
2.12647
2.11065
2.09458
2.07839
2.0622
2.04614
2.03033
2.01484
1.99974
1.98505
1.97077
1.95686
1.94319
1.92959
1.916
1.90208
1.88841
1.87265
1.84856
0.00031911
0.00192416
0.00976387
0.0198723
0.0270663
0.0320792
0.0357439
0.0385604
0.0408271
0.0427339
0.0444125
0.0459614
0.0474594
0.0489733
0.0505609
0.0522734
0.0541597
0.0562643
0.0586291
0.061293
0.0642923
0.0676599
0.0714246
0.0756103
0.0802348
0.0853094
0.0908381
0.0968188
0.103243
0.110097
0.11736
0.125002
0.132989
0.141277
0.149813
0.158546
0.167438
0.176484
0.185746
0.195389
0.205697
0.216956
0.229401
0.243219
0.258592
0.27566
0.294506
0.31514
0.337537
0.361629
0.38733
0.414538
0.443148
0.473062
0.504189
0.536438
0.569717
0.603928
0.638977
0.674775
0.711243
0.748307
0.7859
0.823965
0.862442
0.901282
0.940435
0.979856
1.0195
1.05932
1.09926
1.13929
1.17936
1.21943
1.25945
1.29937
1.33916
1.37877
1.41817
1.45732
1.49619
1.53476
1.573
1.6109
1.64844
1.68561
1.72241
1.75881
1.79482
1.83042
1.86559
1.90033
1.93462
1.96844
2.00176
2.03456
2.06681
2.0985
2.12958
2.16003
2.18983
2.21894
2.24734
2.27501
2.30193
2.32808
2.35345
2.37803
2.40183
2.42485
2.44709
2.46856
2.48926
2.5092
2.52839
2.54683
2.5645
2.5814
2.59751
2.6128
2.62723
2.64075
2.65331
2.66486
2.67531
2.68462
2.69269
2.69948
2.70491
2.70895
2.71148
2.71257
2.71239
2.71071
2.70765
2.70327
2.69768
2.69098
2.68329
2.67474
2.66546
2.65557
2.6452
2.63445
2.62342
2.61217
2.60076
2.5892
2.57752
2.56568
2.55365
2.54137
2.52877
2.51575
2.50225
2.48816
2.47341
2.45796
2.44175
2.4248
2.40711
2.38876
2.36985
2.35051
2.33089
2.31116
2.29152
2.27212
2.25312
2.23464
2.21676
2.19952
2.1829
2.16682
2.15115
2.13581
2.12053
2.10563
2.08934
2.0664
0.000710508
0.00412795
0.0166682
0.0277336
0.0349441
0.0399216
0.0436071
0.0464951
0.0488706
0.050918
0.0527709
0.0545344
0.0562946
0.058125
0.0600903
0.0622489
0.0646534
0.0673508
0.0703832
0.0737872
0.0775939
0.0818285
0.0865093
0.0916476
0.0972463
0.1033
0.109795
0.11671
0.124015
0.131675
0.139649
0.147895
0.156374
0.165057
0.173942
0.183069
0.192545
0.202562
0.213341
0.225108
0.23805
0.252353
0.268169
0.285611
0.304742
0.325567
0.348061
0.372172
0.397833
0.424966
0.453492
0.483329
0.514406
0.546656
0.580026
0.614469
0.649938
0.686385
0.723763
0.762021
0.801103
0.840953
0.881517
0.922738
0.964562
1.00693
1.0498
1.0931
1.13679
1.18079
1.22506
1.26953
1.31414
1.35883
1.40353
1.44817
1.49271
1.53708
1.58123
1.6251
1.66867
1.71189
1.75473
1.79718
1.83921
1.88081
1.92198
1.9627
2.00296
2.04275
2.08207
2.1209
2.15922
2.197
2.23423
2.27087
2.30689
2.34226
2.37693
2.41088
2.44407
2.47645
2.508
2.53869
2.56849
2.59737
2.62533
2.65235
2.67843
2.70358
2.72782
2.75114
2.77358
2.79515
2.81587
2.83575
2.8548
2.87303
2.89043
2.90697
2.92262
2.93734
2.95107
2.96375
2.97528
2.9856
2.99459
3.00218
3.00827
3.01279
3.01558
3.01674
3.01632
3.01415
3.0103
3.00484
2.99788
2.98954
2.97996
2.96929
2.95769
2.94532
2.93236
2.91893
2.90518
2.89122
2.87712
2.86296
2.84875
2.83451
2.8202
2.80577
2.79114
2.7762
2.76084
2.74493
2.72834
2.71098
2.69276
2.67361
2.65353
2.63254
2.61073
2.58825
2.56526
2.54197
2.51864
2.49548
2.47274
2.45061
2.42925
2.40874
2.38913
2.3704
2.35245
2.33521
2.31846
2.30231
2.28534
2.26289
0.00119414
0.00746926
0.023844
0.0352976
0.0425991
0.0476992
0.0515365
0.0545918
0.0571487
0.0593987
0.0614835
0.0635152
0.0655863
0.0677774
0.0701594
0.0727949
0.075738
0.079035
0.0827235
0.0868325
0.0913823
0.0963848
0.101843
0.107751
0.114092
0.120843
0.127971
0.13544
0.14321
0.151248
0.159529
0.168048
0.176828
0.185935
0.195489
0.205651
0.216599
0.228503
0.241544
0.255887
0.271669
0.288978
0.30787
0.328363
0.350441
0.374067
0.399192
0.42576
0.453712
0.482988
0.513533
0.545295
0.578234
0.612315
0.647512
0.683808
0.721183
0.759622
0.799105
0.839606
0.881091
0.923523
0.966858
1.01105
1.05605
1.10179
1.14823
1.1953
1.24294
1.29107
1.33962
1.3885
1.43765
1.48696
1.53636
1.58577
1.6351
1.68427
1.73322
1.78188
1.8302
1.87812
1.92561
1.97264
2.0192
2.06527
2.11084
2.15591
2.20046
2.24448
2.28798
2.33093
2.37331
2.4151
2.45628
2.4968
2.53663
2.57573
2.61404
2.65153
2.68813
2.72382
2.75853
2.79223
2.82489
2.85647
2.88695
2.91633
2.94459
2.97176
2.99785
3.02287
3.04687
3.06987
3.0919
3.11301
3.13321
3.15253
3.17098
3.18855
3.20522
3.22096
3.23571
3.2494
3.26194
3.27323
3.28315
3.29158
3.2984
3.30351
3.30672
3.30808
3.30758
3.30504
3.30052
3.29407
3.2858
3.27583
3.26431
3.25144
3.2374
3.22239
3.20662
3.19028
3.17355
3.15657
3.13949
3.1224
3.10537
3.08844
3.07161
3.05484
3.03805
3.02113
3.00394
2.9863
2.96805
2.94903
2.92908
2.90808
2.88593
2.86263
2.83822
2.81282
2.7866
2.75981
2.73274
2.7057
2.679
2.65293
2.62774
2.6036
2.58064
2.5589
2.53834
2.51891
2.50042
2.48288
2.46502
2.44258
0.00167631
0.0116658
0.0306328
0.0425521
0.050155
0.0555252
0.0596126
0.062908
0.0657067
0.0682097
0.070568
0.0729002
0.0753066
0.0778744
0.0806789
0.0837839
0.087242
0.0910939
0.0953689
0.100082
0.105238
0.110831
0.116845
0.12326
0.130046
0.137171
0.144604
0.152321
0.160309
0.168575
0.177157
0.186125
0.195589
0.20568
0.216534
0.228304
0.241141
0.255194
0.27058
0.287386
0.305664
0.325438
0.346708
0.369456
0.393649
0.419248
0.446214
0.474505
0.504082
0.53491
0.56696
0.600207
0.634635
0.670236
0.707006
0.744947
0.784065
0.824361
0.865837
0.908484
0.952288
0.997225
1.04327
1.09037
1.13849
1.18758
1.23758
1.28842
1.34002
1.3923
1.44517
1.49853
1.55227
1.60629
1.66048
1.71474
1.76895
1.82302
1.87686
1.93038
1.98352
2.03621
2.08841
2.1401
2.19124
2.24183
2.29185
2.34131
2.39019
2.43849
2.48621
2.53332
2.57982
2.62567
2.67084
2.71529
2.75898
2.80185
2.84384
2.88489
2.92495
2.96394
3.0018
3.0385
3.07396
3.10817
3.1411
3.17272
3.20304
3.23208
3.25985
3.28639
3.31174
3.33594
3.35905
3.38112
3.40219
3.42232
3.44153
3.45985
3.47726
3.49376
3.5093
3.52381
3.5372
3.54936
3.56016
3.56944
3.57705
3.58285
3.58663
3.58834
3.58795
3.58525
3.58023
3.57295
3.56347
3.55195
3.53853
3.52343
3.50687
3.4891
3.47036
3.45089
3.43091
3.41063
3.39024
3.36988
3.34968
3.32971
3.31004
3.29064
3.27146
3.2524
3.2333
3.21396
3.19417
3.17371
3.15234
3.12984
3.10605
3.08085
3.05423
3.02626
2.9971
2.967
2.93627
2.90531
2.8745
2.84425
2.81491
2.78676
2.76002
2.73483
2.71124
2.68923
2.66864
2.64943
2.63043
2.60766
0.00207596
0.0159475
0.0369919
0.0496168
0.0576775
0.0634146
0.0678217
0.071411
0.0744915
0.0772767
0.0799263
0.0825659
0.0853039
0.0882324
0.0914283
0.0949536
0.0988557
0.103168
0.107907
0.113072
0.118652
0.124616
0.130948
0.137621
0.144617
0.15192
0.159528
0.167453
0.175735
0.18444
0.193656
0.203487
0.214047
0.225465
0.237874
0.251396
0.266136
0.282178
0.299579
0.318369
0.33856
0.360147
0.383115
0.407443
0.433105
0.460077
0.488336
0.51786
0.548634
0.580646
0.613888
0.648361
0.68407
0.721025
0.759243
0.798744
0.839547
0.881673
0.925136
0.969945
1.0161
1.06359
1.11239
1.16247
1.21379
1.2663
1.31994
1.37462
1.43028
1.48681
1.54409
1.60203
1.66047
1.71931
1.77839
1.83758
1.89676
1.9558
2.0146
2.07305
2.13106
2.18857
2.24552
2.30189
2.35766
2.4128
2.46732
2.5212
2.57444
2.62705
2.67901
2.73032
2.78095
2.83089
2.88008
2.9285
2.97606
3.02272
3.06841
3.11304
3.15653
3.19881
3.2398
3.27941
3.3176
3.35432
3.38953
3.42322
3.45539
3.48607
3.51528
3.54307
3.56949
3.5946
3.61847
3.64117
3.66278
3.68335
3.70296
3.72164
3.73942
3.75632
3.7723
3.78732
3.80131
3.81415
3.82568
3.83573
3.84413
3.85067
3.85516
3.85741
3.85733
3.85472
3.84946
3.84158
3.83111
3.8182
3.803
3.78574
3.76667
3.74608
3.72426
3.70149
3.67805
3.6542
3.63018
3.6062
3.58243
3.55902
3.53609
3.51368
3.49177
3.47028
3.44908
3.42795
3.40665
3.38489
3.36236
3.33875
3.31376
3.28718
3.25888
3.22884
3.19718
3.1641
3.12997
3.09519
3.06026
3.02568
2.99192
2.95939
2.92845
2.89934
2.87223
2.84716
2.82404
2.80279
2.78234
2.75889
0.00242175
0.0198614
0.0430966
0.0565389
0.0651353
0.071297
0.0760658
0.0799767
0.0833555
0.086428
0.0893613
0.09229
0.0953284
0.0985712
0.102094
0.105955
0.110194
0.114837
0.119892
0.125345
0.131161
0.137322
0.143823
0.150644
0.157793
0.16529
0.17317
0.181491
0.190321
0.199743
0.209853
0.220759
0.232571
0.245394
0.259322
0.274433
0.290786
0.30842
0.327356
0.347602
0.369156
0.39201
0.416152
0.441572
0.46826
0.496208
0.525415
0.555878
0.587605
0.620605
0.654891
0.690484
0.727409
0.765693
0.805369
0.846473
0.889036
0.933092
0.978667
1.02578
1.07445
1.12466
1.17639
1.22964
1.28434
1.34045
1.3979
1.45661
1.51648
1.5774
1.63924
1.70187
1.76513
1.82887
1.89292
1.95711
2.02129
2.08531
2.14906
2.21241
2.27528
2.33757
2.39925
2.46027
2.52062
2.5803
2.63928
2.69757
2.75516
2.81206
2.86826
2.92375
2.97851
3.03252
3.08573
3.13809
3.18952
3.23996
3.28931
3.33749
3.38439
3.4299
3.47393
3.51636
3.55713
3.59616
3.63342
3.66889
3.70259
3.73455
3.76482
3.79347
3.82056
3.84616
3.87036
3.89325
3.91494
3.9355
3.95502
3.97358
3.99122
4.00801
4.02395
4.03904
4.05321
4.06635
4.07833
4.08896
4.09803
4.10531
4.11055
4.11351
4.11397
4.11176
4.1066
4.09845
4.08733
4.07333
4.05659
4.03735
4.01592
3.99258
3.96767
3.94153
3.91448
3.88686
3.85895
3.83101
3.80327
3.77598
3.74933
3.72344
3.69833
3.67401
3.65037
3.62722
3.6043
3.58129
3.5578
3.5334
3.50769
3.4803
3.45096
3.41952
3.38598
3.3505
3.31339
3.27512
3.23623
3.19734
3.15903
3.12186
3.08632
3.05283
3.02167
2.993
2.9668
2.94305
2.92074
2.89644
0.00268912
0.0237707
0.0489947
0.0632635
0.0724253
0.0790349
0.0841767
0.0884102
0.0920792
0.0954208
0.0986094
0.101787
0.105073
0.108562
0.112329
0.116426
0.12089
0.125738
0.130974
0.136585
0.142551
0.148856
0.155488
0.16248
0.169875
0.177709
0.186039
0.194936
0.204477
0.214753
0.225854
0.23787
0.250884
0.264967
0.280179
0.296565
0.314154
0.332964
0.353003
0.374275
0.396779
0.420517
0.445489
0.471701
0.49916
0.527879
0.557874
0.589166
0.62178
0.655745
0.691094
0.727867
0.766105
0.805856
0.847162
0.890068
0.93462
0.980863
1.02883
1.07855
1.13004
1.18329
1.2383
1.29504
1.35347
1.41352
1.47511
1.53813
1.60248
1.66802
1.73461
1.80208
1.87026
1.93896
2.00797
2.0771
2.14618
2.21505
2.28358
2.35164
2.41914
2.486
2.55218
2.61766
2.68242
2.74646
2.80976
2.87232
2.93414
2.99522
3.05555
3.11513
3.17394
3.23195
3.28911
3.34535
3.40059
3.45475
3.50771
3.55936
3.60959
3.65826
3.70522
3.75035
3.79353
3.83467
3.87368
3.91054
3.94532
3.97808
4.0089
4.03784
4.06501
4.09049
4.1144
4.13687
4.15801
4.17795
4.19677
4.21456
4.23139
4.24737
4.26261
4.27711
4.29084
4.30374
4.31567
4.32647
4.33593
4.34379
4.34975
4.35349
4.3547
4.35319
4.34856
4.3406
4.32933
4.31474
4.2969
4.27606
4.25256
4.22672
4.19889
4.16944
4.13877
4.10727
4.07529
4.04314
4.01108
3.97947
3.94863
3.91872
3.88987
3.86216
3.83559
3.81001
3.78519
3.76079
3.73639
3.71146
3.68546
3.65786
3.6282
3.59616
3.56157
3.52447
3.48511
3.44391
3.40147
3.3585
3.31569
3.27377
3.23337
3.1951
3.15938
3.12653
3.09666
3.06983
3.04517
3.0196
0.00287554
0.0275769
0.0546031
0.0696805
0.0794033
0.0864479
0.0919419
0.0964719
0.100401
0.103976
0.107377
0.110752
0.114222
0.117884
0.121813
0.126061
0.130659
0.135628
0.140973
0.146694
0.152784
0.159245
0.166094
0.173364
0.181099
0.189375
0.198261
0.207823
0.218139
0.229285
0.241333
0.254349
0.268391
0.283505
0.299728
0.317085
0.335594
0.355268
0.376116
0.398147
0.421371
0.445804
0.471463
0.49837
0.526554
0.556049
0.586889
0.619108
0.652747
0.687854
0.724482
0.762687
0.802525
0.844055
0.887338
0.932442
0.979429
1.02836
1.07926
1.13216
1.18707
1.24401
1.30294
1.36382
1.4266
1.49118
1.55746
1.62528
1.69452
1.76499
1.83653
1.90893
1.98201
2.05554
2.1293
2.20308
2.27668
2.34996
2.42278
2.49502
2.56659
2.63746
2.70762
2.77706
2.8458
2.91379
2.98102
3.04749
3.11321
3.17816
3.24235
3.30576
3.36839
3.43019
3.49112
3.55108
3.61
3.66774
3.7242
3.77923
3.83268
3.88439
3.93419
3.9819
4.02736
4.07044
4.111
4.14888
4.18426
4.21727
4.248
4.27655
4.30303
4.32758
4.35035
4.37151
4.39122
4.40964
4.42688
4.44306
4.45822
4.47246
4.48605
4.49907
4.51151
4.52333
4.53442
4.5447
4.55399
4.56203
4.56849
4.57297
4.57508
4.57447
4.57083
4.56362
4.55286
4.53843
4.52025
4.49847
4.4735
4.44567
4.41532
4.38287
4.34875
4.31342
4.27732
4.24083
4.20418
4.16787
4.13236
4.09793
4.0647
4.03294
4.00278
3.97415
3.94692
3.92079
3.89531
3.86992
3.84394
3.81667
3.78745
3.75572
3.72109
3.6834
3.64275
3.5995
3.55423
3.50769
3.46071
3.41414
3.3688
3.32548
3.28479
3.24722
3.21306
3.18252
3.15489
3.12754
0.00298552
0.0312157
0.0598454
0.0756698
0.0859036
0.0933314
0.0991226
0.103897
0.108041
0.111808
0.115376
0.118895
0.122488
0.126261
0.130288
0.134624
0.139305
0.144354
0.149789
0.155621
0.161863
0.168534
0.17566
0.183282
0.191456
0.200238
0.209705
0.219942
0.231005
0.242956
0.255847
0.269725
0.28463
0.300594
0.317643
0.335796
0.355069
0.375479
0.397046
0.419791
0.443738
0.468911
0.495348
0.523094
0.552199
0.582722
0.614709
0.648194
0.683248
0.719944
0.758358
0.79856
0.840624
0.884627
0.930649
0.978775
1.02908
1.08159
1.13634
1.19335
1.25265
1.31422
1.37803
1.44401
1.51205
1.58203
1.6538
1.72715
1.80189
1.87778
1.95458
2.03206
2.10996
2.18801
2.26598
2.34366
2.42087
2.49758
2.57371
2.64914
2.7237
2.79746
2.87056
2.94303
3.01486
3.08597
3.15634
3.22596
3.29483
3.36296
3.43035
3.497
3.56289
3.62798
3.69221
3.7555
3.81773
3.87878
3.93849
3.99669
4.0532
4.10782
4.16033
4.21052
4.25817
4.30311
4.34518
4.38419
4.42022
4.45336
4.48371
4.51136
4.53646
4.5592
4.57976
4.59839
4.61531
4.63075
4.64491
4.65795
4.67002
4.68124
4.69193
4.70222
4.71215
4.72172
4.73083
4.73949
4.74766
4.75511
4.76149
4.7664
4.76935
4.7698
4.76747
4.76163
4.7521
4.73876
4.72142
4.70001
4.67482
4.6461
4.61415
4.57937
4.54224
4.50327
4.463
4.42195
4.38051
4.33922
4.29865
4.25918
4.22094
4.1844
4.14988
4.11739
4.08698
4.05848
4.03149
4.00541
3.97953
3.95298
3.92488
3.8944
3.86085
3.82381
3.78314
3.73903
3.69199
3.64277
3.59226
3.54143
3.49133
3.44291
3.397
3.35426
3.31522
3.2803
3.249
3.21929
0.00303547
0.034644
0.0646439
0.0810991
0.0917472
0.0994622
0.105468
0.110438
0.114764
0.118682
0.12237
0.12598
0.129644
0.133478
0.137562
0.141954
0.146695
0.151818
0.157352
0.163322
0.169754
0.176677
0.184129
0.192155
0.20081
0.210154
0.220248
0.231139
0.242907
0.255623
0.26931
0.284008
0.299746
0.316556
0.334469
0.353482
0.373611
0.394883
0.417327
0.440979
0.465879
0.492078
0.519639
0.548635
0.579164
0.611293
0.645
0.680337
0.717461
0.756482
0.797491
0.840581
0.885839
0.933358
0.983223
1.0355
1.09025
1.14749
1.20726
1.26957
1.33442
1.40177
1.47156
1.54369
1.61801
1.69434
1.77248
1.85218
1.93315
2.01507
2.0976
2.18042
2.26316
2.34551
2.42728
2.50826
2.58814
2.66722
2.74555
2.823
2.89937
2.97484
3.04965
3.12384
3.19751
3.27044
3.34257
3.41393
3.48452
3.5544
3.62357
3.69205
3.75984
3.82691
3.89324
3.95874
4.02332
4.08684
4.14913
4.20999
4.26923
4.32659
4.3818
4.43457
4.48462
4.5317
4.57563
4.61633
4.65357
4.68724
4.71736
4.74403
4.76738
4.78762
4.805
4.81982
4.83242
4.84311
4.85222
4.86002
4.8669
4.87319
4.87902
4.8846
4.89007
4.89554
4.90098
4.90648
4.91208
4.91763
4.92282
4.92728
4.93053
4.93197
4.93107
4.92734
4.91997
4.90885
4.89373
4.87444
4.85083
4.82295
4.791
4.7553
4.71626
4.67444
4.63043
4.5849
4.53854
4.49198
4.44581
4.40059
4.35666
4.31458
4.27484
4.23755
4.20296
4.17116
4.14185
4.1145
4.08842
4.06268
4.03619
4.0078
3.97649
3.94145
3.90227
3.85886
3.81151
3.76089
3.70789
3.6536
3.59923
3.54595
3.4948
3.44662
3.40223
3.3623
3.32658
3.29383
0.00309086
0.0378187
0.0689905
0.0859548
0.0969005
0.104803
0.110976
0.116124
0.120592
0.124605
0.128356
0.132011
0.135709
0.13958
0.143705
0.148145
0.152952
0.158169
0.163836
0.169993
0.176678
0.18393
0.191793
0.200314
0.209548
0.219555
0.230395
0.242105
0.254726
0.268302
0.282905
0.29859
0.315386
0.333349
0.352438
0.372614
0.393944
0.416485
0.440289
0.465411
0.491913
0.51987
0.549361
0.58048
0.613325
0.647975
0.684511
0.723061
0.763743
0.806661
0.851913
0.899593
0.949789
1.00258
1.05802
1.11617
1.17706
1.24068
1.30705
1.37615
1.44792
1.5223
1.59918
1.67842
1.75986
1.84327
1.92842
2.01501
2.1027
2.1911
2.27978
2.36826
2.45598
2.54227
2.62696
2.71028
2.79205
2.87276
2.95248
3.03116
3.10889
3.18563
3.26132
3.33606
3.40992
3.48261
3.55424
3.62489
3.69464
3.76359
3.83183
3.89942
3.96642
4.03287
4.09878
4.16415
4.22892
4.29299
4.35621
4.4184
4.47934
4.53876
4.59633
4.65164
4.70431
4.75394
4.80021
4.84276
4.88128
4.91557
4.94557
4.97132
4.99291
5.01053
5.02445
5.03501
5.04264
5.04776
5.05077
5.05184
5.05156
5.05044
5.04872
5.04682
5.04506
5.04369
5.04295
5.043
5.04384
5.04542
5.04752
5.04987
5.05205
5.05355
5.05373
5.0522
5.04788
5.04005
5.0284
5.0125
4.99205
4.96692
4.9371
4.90272
4.86407
4.82156
4.77575
4.72732
4.67693
4.62531
4.57327
4.52164
4.47125
4.42276
4.37674
4.3335
4.29349
4.25712
4.22428
4.19459
4.16754
4.14221
4.11738
4.09164
4.06359
4.03197
3.99595
3.95506
3.90924
3.85895
3.80494
3.74837
3.69059
3.63299
3.57683
3.52316
3.4731
3.42764
3.38674
3.35022
0.00363033
0.040699
0.0725757
0.0897925
0.100875
0.108881