/*--------------------------------*- C++ -*----------------------------------*\
| =========                 |                                                 |
| \\      /  F ield         | OpenFOAM: The Open Source CFD Toolbox           |
|  \\    /   O peration     | Version:  2312                                  |
|   \\  /    A nd           | Website:  www.openfoam.com                      |
|    \\/     M anipulation  |                                                 |
\*---------------------------------------------------------------------------*/
FoamFile
{
    version     2.0;
    format      ascii;
    arch        "LSB;label=32;scalar=64";
    class       volScalarField;
    location    "0.2";
    object      k_0;
}
// * * * * * * * * * * * * * * * * * * * * * * * * * * * * * * * * * * * * * //

dimensions      [0 2 -2 0 0 0 0];

internalField   nonuniform List<scalar> 
12225
(
0.590688
1.73675
9.59764
9.40741
7.2832
4.96904
3.83328
3.30141
3.06947
2.97761
2.93226
2.90807
2.88201
2.85892
2.85025
2.82379
2.86895
2.79654
0.384504
0.483308
1.93017
3.34052
3.6364
3.59655
3.52984
3.44327
3.35054
3.27465
3.21032
3.16543
3.12126
3.09097
3.05498
3.03922
3.00616
3.00028
0.376313
0.385239
0.51644
0.83796
1.12743
1.2351
1.38272
1.50153
1.59713
1.69194
1.78251
1.86681
1.93069
1.97538
2.01676
2.05021
2.0781
2.11925
0.375562
0.378339
0.395349
0.434244
0.500752
0.53704
0.563832
0.594883
0.619604
0.661014
0.697467
0.750187
0.786227
0.832852
0.859951
0.905455
0.931324
0.985712
0.375841
0.377943
0.382922
0.391175
0.403597
0.410947
0.413037
0.414368
0.415078
0.417293
0.420559
0.426457
0.430208
0.436362
0.440119
0.447463
0.45247
0.464725
0.376507
0.377434
0.379819
0.382733
0.38608
0.388014
0.387807
0.387025
0.385558
0.383825
0.382321
0.380627
0.378438
0.376188
0.37364
0.371194
0.369484
0.369491
0.376266
0.376734
0.377367
0.378965
0.380662
0.381705
0.381407
0.380645
0.379436
0.377737
0.37622
0.374487
0.372632
0.370367
0.368032
0.365618
0.363617
0.362068
0.374861
0.374447
0.375276
0.376909
0.378346
0.379387
0.379094
0.378347
0.377122
0.375331
0.373742
0.372219
0.370805
0.369233
0.367715
0.366183
0.364832
0.363545
0.375224
0.375057
0.375824
0.376897
0.377784
0.378485
0.378258
0.377535
0.376166
0.373995
0.372051
0.370464
0.369205
0.368092
0.367162
0.366302
0.365452
0.36451
0.375808
0.375207
0.37575
0.376515
0.3769
0.377557
0.37751
0.377036
0.375865
0.373343
0.370913
0.369083
0.3678
0.366908
0.366301
0.365823
0.365203
0.364391
0.375623
0.375993
0.375193
0.374835
0.374969
0.375661
0.376132
0.375931
0.375084
0.372773
0.370055
0.368072
0.366774
0.366009
0.365561
0.365202
0.364538
0.363602
0.376694
0.376152
0.374233
0.372669
0.372722
0.373508
0.374131
0.374029
0.373374
0.371385
0.368952
0.367204
0.366114
0.365517
0.365171
0.364781
0.363957
0.3627
0.376332
0.376272
0.37409
0.37151
0.371152
0.37138
0.371602
0.37148
0.370878
0.369178
0.367369
0.366115
0.365392
0.365019
0.364751
0.36433
0.363388
0.361777
0.375688
0.375193
0.373018
0.371561
0.37057
0.369867
0.369487
0.36908
0.368231
0.366797
0.365446
0.364552
0.364111
0.363903
0.363676
0.363237
0.362209
0.360358
0.376158
0.376173
0.375601
0.374002
0.371192
0.368803
0.367509
0.366944
0.366403
0.365268
0.363825
0.362731
0.36213
0.361824
0.361494
0.360856
0.35948
0.35773
0.375163
0.37416
0.372642
0.37177
0.370637
0.368577
0.366774
0.3656
0.36456
0.363354
0.362141
0.361238
0.360646
0.360146
0.359429
0.358347
0.356961
0.35542
0.375555
0.374944
0.375575
0.376045
0.375553
0.37306
0.368687
0.365361
0.363173
0.361936
0.361376
0.3612
0.361136
0.360999
0.360574
0.359469
0.358178
0.356779
0.374859
0.37371
0.373534
0.373482
0.372945
0.371009
0.36807
0.365387
0.363223
0.36169
0.360719
0.360123
0.359805
0.359593
0.359448
0.359192
0.358807
0.358332
0.374347
0.373685
0.372463
0.370714
0.370121
0.369958
0.369379
0.367236
0.364403
0.362274
0.360468
0.358674
0.356893
0.35531
0.354133
0.353452
0.353221
0.353195
0.374826
0.373661
0.371596
0.369949
0.369475
0.369078
0.368319
0.367316
0.366259
0.365187
0.363928
0.362247
0.360117
0.357748
0.355448
0.35348
0.352021
0.35113
0.374895
0.373811
0.371846
0.369824
0.367685
0.366698
0.366674
0.36708
0.367882
0.368009
0.367802
0.366947
0.364684
0.361866
0.359051
0.356484
0.354388
0.352877
0.375173
0.374433
0.372993
0.370742
0.367954
0.366764
0.366788
0.367507
0.36962
0.370761
0.370899
0.370654
0.36967
0.367067
0.363937
0.360992
0.358471
0.356493
0.375654
0.374201
0.37387
0.373313
0.370563
0.368258
0.368116
0.368695
0.371118
0.373507
0.374094
0.373971
0.373257
0.371024
0.367903
0.365123
0.362825
0.360935
0.375169
0.374478
0.37498
0.374838
0.372717
0.369993
0.369752
0.370224
0.372001
0.37461
0.375276
0.375158
0.374591
0.372996
0.370669
0.368566
0.366815
0.365239
0.375954
0.375119
0.375043
0.375846
0.376194
0.375708
0.375025
0.375126
0.375689
0.37747
0.37782
0.377581
0.376867
0.375296
0.373533
0.3719
0.370598
0.369236
0.376122
0.375621
0.374069
0.374287
0.375743
0.377993
0.381082
0.38474
0.388165
0.390456
0.390511
0.39009
0.388772
0.387545
0.387249
0.387304
0.387895
0.388303
0.376533
0.376061
0.374385
0.374996
0.380668
0.393997
0.420471
0.448055
0.471244
0.487588
0.499254
0.504418
0.510684
0.517024
0.530596
0.545904
0.568439
0.588176
0.375499
0.376549
0.380122
0.393278
0.463699
0.612145
0.839105
0.999217
1.09095
1.17355
1.24111
1.28845
1.33518
1.38509
1.45107
1.51849
1.59426
1.65997
0.377556
0.397952
0.462113
0.670007
1.68989
2.79378
3.5068
3.57129
3.55563
3.51009
3.46011
3.41934
3.39094
3.37252
3.35589
3.34309
3.32733
3.31257
0.50133
1.06168
1.8211
3.37623
9.21854
9.97237
8.77325
6.47639
4.948
4.0804
3.63412
3.41105
3.2983
3.23947
3.19896
3.16885
3.13648
3.10993
6.0631e-07
4.54068e-06
1.59059e-05
6.07029e-05
0.000182787
0.00040566
0.000703634
0.00104718
0.00140933
0.00176865
0.00211052
0.00242378
0.00270242
0.00294416
0.00314667
0.00331086
0.00343878
0.00353276
0.00359517
0.00363364
0.00364436
0.00364167
0.00363558
0.0036247
0.00362362
0.00363264
0.00366108
0.00372344
0.00383279
0.00399995
0.0042343
0.00454358
0.0049327
0.00540159
0.00594424
0.00655211
0.00721329
0.0079159
0.00865071
0.00941328
0.0102037
0.01103
0.0119016
0.0128352
0.0138415
0.0149133
0.0159854
0.016917
0.0175313
0.0175999
0.0175072
0.0174599
0.01754
0.0178192
0.0183089
0.0189808
0.0204686
0.0250011
0.0368293
0.0548069
0.076881
0.101903
0.129135
0.157961
0.187912
0.218613
0.249765
0.28114
0.312561
0.343883
0.374994
0.405795
0.436205
0.466151
0.495544
0.524369
0.552607
0.580248
0.607287
0.633724
0.659562
0.684806
0.709459
0.733526
0.757005
0.779898
0.802203
0.823919
0.84503
0.865521
0.885373
0.904568
0.923083
0.940897
0.957986
0.97433
0.989907
1.0047
1.01869
1.03187
1.04422
1.05573
1.06639
1.0762
1.08514
1.0932
1.10034
1.10655
1.11181
1.11609
1.11938
1.12141
1.12233
1.12257
1.12142
1.11916
1.1157
1.11102
1.1051
1.09792
1.08947
1.07977
1.06883
1.05669
1.0434
1.02901
1.01363
0.997333
0.980226
0.962423
0.944037
0.925198
0.906044
0.886679
0.867214
0.847751
0.828374
0.809168
0.790198
0.77151
0.753141
0.73511
0.717424
0.70008
0.683065
0.666357
0.649933
0.633764
0.617824
0.602087
0.586531
0.571141
0.555906
0.540824
0.5259
0.511147
0.496583
0.482232
0.468122
0.454284
0.440747
0.427542
0.414693
0.402221
0.390143
0.378462
0.367185
0.356297
0.345781
0.335623
0.326111
0.320611
0.322879
0.327451
0.331957
0.336118
0.340032
0.341996
0.344959
0.323319
3.13891e-06
2.37734e-05
0.00015846
0.000565173
0.00148829
0.00291532
0.0045698
0.00624531
0.00780157
0.00916557
0.0103139
0.0112476
0.0119863
0.0125551
0.0129739
0.0132727
0.0134719
0.0135916
0.0136522
0.0136723
0.0136799
0.0136994
0.0137478
0.013851
0.0140538
0.0143957
0.0149194
0.0156645
0.0166614
0.0179288
0.019476
0.0212992
0.0233789
0.025682
0.0281677
0.0307968
0.0335366
0.0363706
0.039306
0.0423754
0.0456389
0.0491791
0.0530853
0.0574366
0.0622404
0.0672999
0.0721175
0.0758862
0.0778664
0.0787037
0.0802014
0.0839895
0.090369
0.0990414
0.11025
0.124696
0.14295
0.165236
0.190091
0.215062
0.239994
0.264744
0.289256
0.313489
0.337428
0.361073
0.384424
0.407491
0.430285
0.452819
0.475114
0.497203
0.519157
0.541062
0.562486
0.58351
0.604163
0.624446
0.64438
0.663977
0.683248
0.702202
0.720844
0.739176
0.757192
0.774867
0.792251
0.809383
0.826231
0.842795
0.859064
0.875031
0.890685
0.906019
0.921025
0.935693
0.950018
0.963992
0.977608
0.990857
1.00373
1.01623
1.02834
1.04011
1.05156
1.06262
1.07324
1.08343
1.09318
1.10245
1.1112
1.11938
1.12702
1.13421
1.14092
1.14714
1.15287
1.15809
1.16279
1.16696
1.17061
1.17371
1.17628
1.1783
1.17978
1.18075
1.18112
1.1811
1.18053
1.1795
1.178
1.17611
1.17392
1.17138
1.16854
1.16544
1.16212
1.15863
1.15498
1.15122
1.14736
1.14343
1.13945
1.13541
1.13131
1.12716
1.12295
1.11866
1.11427
1.10977
1.10515
1.10038
1.09546
1.09039
1.08515
1.07976
1.07423
1.06856
1.06279
1.05695
1.05105
1.04513
1.03922
1.03334
1.02752
1.02176
1.01609
1.01047
1.0049
0.999338
0.993763
0.9884
0.983456
0.978205
0.972451
0.966298
0.958742
0.952327
0.940182
0.909452
4.05428e-06
7.45447e-05
0.000511886
0.00181832
0.00452858
0.00781188
0.0110181
0.0138375
0.0161913
0.0181158
0.0196842
0.0209717
0.0220424
0.0229477
0.0237295
0.0244251
0.025061
0.0256624
0.026257
0.0268739
0.0275455
0.028308
0.0292007
0.0302676
0.0315557
0.0331107
0.0349715
0.0371655
0.0397056
0.0425921
0.0458163
0.0493658
0.0532271
0.0573862
0.0618282
0.0665427
0.0715269
0.0767935
0.0823765
0.0883228
0.0946807
0.101475
0.108661
0.116092
0.123541
0.130764
0.137645
0.144387
0.151336
0.159389
0.169144
0.180711
0.194552
0.21086
0.229891
0.251586
0.275549
0.301009
0.327027
0.353119
0.379239
0.405348
0.431433
0.45748
0.483479
0.509421
0.5353
0.561095
0.586789
0.612368
0.637805
0.663061
0.688069
0.712748
0.737365
0.761899
0.786329
0.810638
0.834815
0.858848
0.882726
0.906441
0.929987
0.953361
0.976563
0.999608
1.02245
1.04507
1.06744
1.08957
1.11145
1.13307
1.15441
1.17547
1.19624
1.21669
1.23683
1.25664
1.2761
1.2952
1.31392
1.33225
1.35017
1.36764
1.38463
1.40116
1.41726
1.43293
1.44815
1.46291
1.4772
1.491
1.50432
1.51716
1.52951
1.54135
1.55266
1.56341
1.57358
1.58315
1.5921
1.60039
1.60801
1.61492
1.62111
1.62656
1.63124
1.63518
1.63834
1.64074
1.64233
1.64316
1.64346
1.6431
1.64208
1.6405
1.6384
1.63585
1.63289
1.62959
1.62599
1.62212
1.61802
1.61373
1.60924
1.60456
1.5997
1.59463
1.58934
1.5838
1.578
1.5719
1.56547
1.55871
1.5516
1.54413
1.53632
1.52819
1.51975
1.51106
1.50216
1.4931
1.48394
1.47473
1.46553
1.45639
1.44734
1.4384
1.42957
1.42082
1.41213
1.40352
1.39497
1.38616
1.37691
1.36725
1.35648
1.3463
1.33184
1.30254
1.67834e-05
0.000242034
0.00159588
0.00531293
0.0105745
0.0153757
0.01926
0.0222957
0.0246767
0.0265812
0.0281474
0.029478
0.0306489
0.0317183
0.0327331
0.033732
0.0347476
0.0358119
0.0369578
0.0382191
0.0396316
0.0412336
0.0430662
0.0451705
0.047585
0.0503423
0.0534666
0.0569724
0.0608653
0.0651452
0.0698116
0.0748656
0.0803106
0.0861494
0.0923824
0.0990075
0.106017
0.113398
0.121129
0.129163
0.137422
0.145803
0.154206
0.162579
0.171019
0.179817
0.189496
0.200473
0.212974
0.227253
0.243465
0.261758
0.282141
0.304551
0.328879
0.354952
0.382473
0.411043
0.440267
0.469905
0.499846
0.530014
0.560358
0.59084
0.621424
0.652078
0.682778
0.713495
0.744199
0.77487
0.805478
0.835998
0.866408
0.896699
0.926894
0.956974
0.986916
1.0167
1.04632
1.07575
1.10498
1.13399
1.16279
1.19136
1.21969
1.24777
1.2756
1.30315
1.33042
1.3574
1.38407
1.41043
1.43646
1.46215
1.48748
1.51243
1.537
1.56116
1.58489
1.60818
1.63101
1.65335
1.6752
1.69654
1.71734
1.73762
1.75737
1.77658
1.79526
1.81339
1.83097
1.848
1.86447
1.88037
1.89569
1.91041
1.92451
1.93796
1.95075
1.96283
1.97418
1.98475
1.99452
2.00344
2.01148
2.0186
2.02478
2.02998
2.03419
2.0374
2.03958
2.04072
2.0411
2.04055
2.0391
2.03684
2.03386
2.03021
2.02598
2.02125
2.01607
2.01053
2.00467
1.99855
1.99218
1.9856
1.9788
1.97178
1.96452
1.95699
1.94915
1.94098
1.93241
1.92343
1.914
1.90409
1.8937
1.88284
1.87152
1.8598
1.84771
1.83534
1.82277
1.81007
1.79735
1.78467
1.77213
1.75977
1.74764
1.73573
1.72405
1.71258
1.70128
1.68994
1.67838
1.66656
1.65404
1.6418
1.62652
1.6003
9.46836e-05
0.000732464
0.00432268
0.0119567
0.0188463
0.0239772
0.0277533
0.0306167
0.0328706
0.0347148
0.0362861
0.0376829
0.0389801
0.0402382
0.0415084
0.0428338
0.0442544
0.0458102
0.0475389
0.0494779
0.051665
0.054138
0.0569335
0.0600854
0.0636227
0.067568
0.0719366
0.0767364
0.0819695
0.0876348
0.0937287
0.100244
0.107171
0.114495
0.122197
0.130244
0.138594
0.147182
0.155931
0.16478
0.173708
0.182804
0.192292
0.202576
0.214005
0.226773
0.241089
0.257126
0.275026
0.294829
0.31651
0.340003
0.365195
0.391967
0.420191
0.449724
0.480391
0.511997
0.544359
0.577331
0.610808
0.644705
0.678954
0.713501
0.748296
0.783291
0.818448
0.853728
0.889098
0.924525
0.959973
0.995411
1.03081
1.06614
1.10139
1.13652
1.17151
1.20632
1.24093
1.27532
1.30946
1.34335
1.37696
1.41029
1.44331
1.47603
1.50843
1.54049
1.57222
1.60359
1.6346
1.66524
1.69548
1.72531
1.75472
1.78368
1.81217
1.84017
1.86765
1.8946
1.921
1.94681
1.97203
1.99663
2.02061
2.04394
2.06663
2.08867
2.11005
2.13078
2.15086
2.17028
2.18904
2.20715
2.22458
2.24134
2.25741
2.27275
2.28736
2.3012
2.31422
2.32639
2.33766
2.34797
2.35729
2.36555
2.37271
2.37872
2.38355
2.38718
2.38953
2.39062
2.39075
2.38964
2.3874
2.38411
2.37987
2.37476
2.36888
2.36233
2.35521
2.34762
2.33963
2.33133
2.32276
2.31397
2.30498
2.2958
2.28641
2.27679
2.26689
2.25667
2.24606
2.23501
2.22345
2.21134
2.19864
2.18533
2.17142
2.15694
2.14192
2.12645
2.11062
2.09455
2.07836
2.06218
2.04613
2.03033
2.01486
1.99977
1.98509
1.97083
1.95693
1.94326
1.92967
1.91607
1.90215
1.88847
1.8727
1.84858
0.00031919
0.00192423
0.00976406
0.0198724
0.0270661
0.032079
0.0357436
0.0385601
0.0408267
0.0427335
0.0444121
0.0459609
0.0474589
0.0489727
0.0505604
0.0522729
0.0541592
0.0562639
0.0586287
0.0612927
0.0642922
0.0676599
0.0714247
0.0756106
0.0802355
0.0853103
0.0908394
0.0968204
0.103245
0.1101
0.117362
0.125006
0.132993
0.141281
0.149817
0.158551
0.167443
0.176489
0.185752
0.195395
0.205703
0.216963
0.229408
0.243226
0.2586
0.275668
0.294515
0.31515
0.337547
0.36164
0.38734
0.414548
0.443158
0.473072
0.504197
0.536445
0.569723
0.603933
0.638981
0.674778
0.711245
0.748307
0.7859
0.823963
0.862439
0.901278
0.940431
0.979851
1.01949
1.05931
1.09925
1.13928
1.17935
1.21942
1.25943
1.29935
1.33914
1.37875
1.41815
1.4573
1.49617
1.53473
1.57297
1.61087
1.64841
1.68559
1.72238
1.75879
1.7948
1.8304
1.86558
1.90033
1.93462
1.96844
2.00176
2.03457
2.06682
2.09851
2.12959
2.16005
2.18984
2.21896
2.24736
2.27502
2.30194
2.32809
2.35346
2.37804
2.40185
2.42487
2.44711
2.46858
2.48929
2.50924
2.52843
2.54687
2.56455
2.58146
2.59758
2.61287
2.6273
2.64082
2.65339
2.66493
2.67538
2.68467
2.69273
2.69951
2.70492
2.70894
2.71145
2.71252
2.71232
2.71063
2.70755
2.70316
2.69756
2.69085
2.68316
2.67462
2.66534
2.65547
2.64511
2.63438
2.62337
2.61214
2.60075
2.58921
2.57755
2.56572
2.5537
2.54143
2.52884
2.51582
2.50231
2.48822
2.47346
2.45799
2.44177
2.4248
2.40709
2.38873
2.36981
2.35046
2.33084
2.31112
2.29148
2.27209
2.25311
2.23465
2.21679
2.19957
2.18297
2.1669
2.15124
2.1359
2.12063
2.10572
2.08941
2.06646
0.000710635
0.00412804
0.0166683
0.0277335
0.0349438
0.0399212
0.0436067
0.0464947
0.0488701
0.0509175
0.0527704
0.0545339
0.0562941
0.0581245
0.0600898
0.0622485
0.0646529
0.0673504
0.0703829
0.073787
0.0775938
0.0818285
0.0865095
0.0916481
0.0972471
0.103301
0.109797
0.116712
0.124018
0.131678
0.139652
0.147899
0.156378
0.165062
0.173947
0.183074
0.192551
0.202569
0.213348
0.225115
0.238058
0.252362
0.268177
0.28562
0.304751
0.325577
0.348071
0.372182
0.397843
0.424976
0.453502
0.483339
0.514415
0.546665
0.580035
0.614476
0.649944
0.68639
0.723768
0.762025
0.801106
0.840956
0.881519
0.922739
0.964562
1.00693
1.0498
1.0931
1.13678
1.18079
1.22506
1.26953
1.31413
1.35882
1.40351
1.44816
1.49269
1.53706
1.5812
1.62507
1.66864
1.71185
1.7547
1.79714
1.83917
1.88078
1.92194
1.96266
2.00293
2.04273
2.08205
2.12089
2.15921
2.197
2.23423
2.27088
2.3069
2.34227
2.37694
2.41089
2.44408
2.47647
2.50802
2.5387
2.5685
2.59738
2.62533
2.65235
2.67844
2.70359
2.72782
2.75116
2.7736
2.79518
2.8159
2.83579
2.85486
2.8731
2.8905
2.90705
2.92271
2.93744
2.95118
2.96385
2.97538
2.98569
2.99467
3.00224
3.00831
3.01281
3.01557
3.01671
3.01627
3.01407
3.01019
3.00472
2.99774
2.98939
2.9798
2.96913
2.95753
2.94518
2.93223
2.91883
2.9051
2.89116
2.87709
2.86295
2.84877
2.83455
2.82026
2.80585
2.79123
2.7763
2.76093
2.74502
2.72842
2.71104
2.6928
2.67363
2.65352
2.63251
2.61069
2.58818
2.56518
2.5419
2.51856
2.49542
2.4727
2.45059
2.42925
2.40877
2.38919
2.37049
2.35256
2.33533
2.31858
2.30243
2.28545
2.26298
0.00119431
0.00746931
0.0238439
0.0352974
0.0425987
0.0476987
0.051536
0.0545913
0.0571482
0.0593982
0.061483
0.0635146
0.0655857
0.0677768
0.0701589
0.0727944
0.0757376
0.0790346
0.0827231
0.0868322
0.0913822
0.0963848
0.101843
0.107751
0.114093
0.120844
0.127973
0.135442
0.143213
0.151251
0.159533
0.168052
0.176832
0.18594
0.195494
0.205657
0.216606
0.22851
0.241552
0.255896
0.271678
0.288988
0.307879
0.328372
0.350451
0.374077
0.399202
0.42577
0.453721
0.482997
0.513542
0.545304
0.578242
0.612323
0.64752
0.683814
0.721189
0.759628
0.799111
0.839611
0.881096
0.923527
0.966862
1.01105
1.05605
1.1018
1.14824
1.19531
1.24294
1.29107
1.33962
1.3885
1.43764
1.48695
1.53635
1.58575
1.63508
1.68425
1.73319
1.78185
1.83015
1.87807
1.92556
1.97259
2.01915
2.06522
2.1108
2.15586
2.20041
2.24445
2.28795
2.3309
2.37329
2.41509
2.45628
2.4968
2.53664
2.57574
2.61405
2.65154
2.68815
2.72383
2.75854
2.79224
2.82489
2.85647
2.88695
2.91632
2.94459
2.97176
2.99784
3.02288
3.04688
3.06989
3.09193
3.11305
3.13326
3.1526
3.17106
3.18865
3.20534
3.22109
3.23584
3.24954
3.26208
3.27336
3.28327
3.29169
3.29849
3.30357
3.30676
3.30808
3.30755
3.30498
3.30042
3.29395
3.28565
3.27566
3.26413
3.25125
3.2372
3.22221
3.20645
3.19013
3.17342
3.15647
3.13942
3.12236
3.10537
3.08847
3.07167
3.05493
3.03816
3.02125
3.00406
2.98642
2.96817
2.94913
2.92916
2.90813
2.88595
2.86262
2.83818
2.81274
2.78651
2.75971
2.73263
2.7056
2.67892
2.65287
2.62771
2.60361
2.58068
2.55897
2.53844
2.51904
2.50056
2.48302
2.46516
2.44271
0.00167649
0.0116657
0.0306325
0.0425516
0.0501545
0.0555247
0.059612
0.0629073
0.0657061
0.0682091
0.0705673
0.0728996
0.075306
0.0778738
0.0806783
0.0837833
0.0872414
0.0910934
0.0953685
0.100082
0.105238
0.110831
0.116846
0.123261
0.130047
0.137172
0.144606
0.152323
0.160311
0.168579
0.17716
0.186129
0.195594
0.205686
0.216541
0.228311
0.241149
0.255202
0.270589
0.287395
0.305673
0.325447
0.346717
0.369465
0.393658
0.419257
0.446223
0.474513
0.50409
0.534918
0.566967
0.600214
0.634642
0.670242
0.707012
0.744954
0.784071
0.824368
0.865844
0.908491
0.952295
0.997233
1.04327
1.09038
1.1385
1.1876
1.23759
1.28843
1.34003
1.39231
1.44517
1.49853
1.55227
1.60629
1.66047
1.71472
1.76892
1.82299
1.87682
1.93034
1.98347
2.03615
2.08835
2.14003
2.19117
2.24176
2.29179
2.34125
2.39014
2.43844
2.48616
2.53329
2.57979
2.62565
2.67083
2.71529
2.75898
2.80186
2.84385
2.8849
2.92496
2.96395
3.00181
3.0385
3.07396
3.10817
3.14108
3.1727
3.20302
3.23206
3.25983
3.28637
3.31173
3.33594
3.35906
3.38114
3.40224
3.42238
3.44162
3.45995
3.47739
3.49391
3.50946
3.52398
3.53738
3.54955
3.56034
3.5696
3.5772
3.58297
3.58672
3.58839
3.58796
3.58522
3.58016
3.57283
3.56332
3.55176
3.53832
3.5232
3.50664
3.48887
3.47014
3.45068
3.43073
3.41048
3.39012
3.3698
3.34964
3.32972
3.31008
3.29072
3.27158
3.25254
3.23345
3.21412
3.19433
3.17386
3.15246
3.12993
3.1061
3.08087
3.05421
3.0262
2.997
2.96687
2.93613
2.90516
2.87437
2.84414
2.81483
2.78671
2.76002
2.73487
2.71133
2.68935
2.6688
2.6496
2.63061
2.60783
0.00207615
0.0159472
0.0369915
0.0496162
0.0576768
0.0634139
0.0678209
0.0714102
0.0744907
0.0772759
0.0799255
0.082565
0.085303
0.0882316
0.0914275
0.0949528
0.0988549
0.103167
0.107906
0.113071
0.118651
0.124616
0.130947
0.137621
0.144618
0.151921
0.159529
0.167455
0.175737
0.184443
0.19366
0.203492
0.214053
0.225471
0.237881
0.251403
0.266144
0.282187
0.299587
0.318378
0.338568
0.360155
0.383123
0.407451
0.433112
0.460084
0.488342
0.517866
0.54864
0.580651
0.613894
0.648366
0.684075
0.721031
0.759249
0.79875
0.839554
0.881681
0.925146
0.969956
1.01611
1.0636
1.1124
1.16249
1.21381
1.26632
1.31996
1.37464
1.4303
1.48683
1.54411
1.60204
1.66048
1.71931
1.77838
1.83757
1.89674
1.95577
2.01456
2.073
2.131
2.1885
2.24545
2.30182
2.35758
2.41272
2.46724
2.52112
2.57437
2.62699
2.67896
2.73027
2.78092
2.83086
2.88007
2.92849
2.97607
3.02273
3.06842
3.11305
3.15654
3.19882
3.2398
3.27941
3.31759
3.3543
3.3895
3.42318
3.45535
3.48602
3.51523
3.54302
3.56945
3.59457
3.61846
3.64118
3.6628
3.6834
3.70303
3.72174
3.73956
3.75648
3.77248
3.78753
3.80154
3.81438
3.82591
3.83596
3.84434
3.85087
3.85531
3.85752
3.8574
3.85474
3.84943
3.84148
3.83097
3.81801
3.80277
3.78548
3.7664
3.74581
3.72399
3.70123
3.67781
3.65399
3.63001
3.60607
3.58234
3.55899
3.53611
3.51374
3.49188
3.47043
3.44925
3.42815
3.40686
3.38509
3.36255
3.3389
3.31387
3.28724
3.25889
3.2288
3.19708
3.16397
3.1298
3.09501
3.06008
3.02551
2.99178
2.95929
2.92839
2.89934
2.87228
2.84727
2.82419
2.80297
2.78254
2.75909
0.00242191
0.019861
0.0430959
0.0565381
0.0651344
0.071296
0.0760648
0.0799757
0.0833544
0.0864269
0.0893602
0.0922888
0.0953273
0.09857
0.102093
0.105954
0.110193
0.114836
0.119891
0.125344
0.13116
0.137321
0.143822
0.150644
0.157794
0.165291
0.173172
0.181493
0.190324
0.199747
0.209858
0.220764
0.232577
0.245401
0.259329
0.27444
0.290793
0.308427
0.327363
0.347609
0.369163
0.392016
0.416157
0.441577
0.468264
0.496212
0.525418
0.555881
0.587608
0.620607
0.654894
0.690488
0.727412
0.765697
0.805376
0.84648
0.889046
0.933103
0.978681
1.0258
1.07447
1.12468
1.17642
1.22966
1.28437
1.34048
1.39793
1.45664
1.51651
1.57743
1.63927
1.70189
1.76515
1.82888
1.89292
1.9571
2.02127
2.08528
2.14902
2.21236
2.27521
2.3375
2.39916
2.46018
2.52053
2.5802
2.63919
2.69748
2.75508
2.81199
2.8682
2.9237
2.97848
3.0325
3.08572
3.13809
3.18953
3.23998
3.28933
3.33751
3.3844
3.42991
3.47393
3.51635
3.5571
3.59612
3.63336
3.66882
3.70251
3.73446
3.76474
3.79338
3.82048
3.84609
3.8703
3.89322
3.91493
3.93552
3.95508
3.97367
3.99135
4.00817
4.02415
4.03927
4.05347
4.06664
4.07863
4.08926
4.09833
4.10559
4.11079
4.11371
4.11412
4.11185
4.10662
4.09841
4.08723
4.07316
4.05636
4.03709
4.01562
3.99226
3.96734
3.9412
3.91418
3.88658
3.8587
3.8308
3.80312
3.77589
3.7493
3.72346
3.69842
3.67415
3.65056
3.62745
3.60455
3.58155
3.55805
3.53363
3.50788
3.48043
3.45103
3.41952
3.38591
3.35036
3.31321
3.2749
3.236
3.19711
3.15882
3.12169
3.0862
3.05277
3.02167
2.99306
2.96693
2.94322
2.92095
2.89668
0.00268923
0.0237701
0.0489939
0.0632624
0.0724241
0.0790336
0.0841753
0.0884088
0.0920778
0.0954192
0.0986079
0.101786
0.105072
0.108561
0.112327
0.116425
0.120888
0.125736
0.130972
0.136584
0.14255
0.148855
0.155488
0.16248
0.169876
0.17771
0.186041
0.194938
0.204481
0.214757
0.225859
0.237876
0.25089
0.264973
0.280185
0.296571
0.314159
0.332969
0.353008
0.374279
0.396783
0.420519
0.445491
0.471702
0.49916
0.527879
0.557873
0.589165
0.621779
0.655745
0.691095
0.727869
0.766109
0.805862
0.847171
0.89008
0.934635
0.980882
1.02885
1.07858
1.13007
1.18333
1.23834
1.29509
1.35352
1.41357
1.47515
1.53818
1.60253
1.66807
1.73465
1.80212
1.87029
1.93897
2.00797
2.07709
2.14616
2.21501
2.28352
2.35157
2.41906
2.48591
2.55208
2.61756
2.68232
2.74636
2.80966
2.87223
2.93405
2.99514
3.05549
3.11509
3.17392
3.23194
3.28911
3.34536
3.40062
3.45478
3.50774
3.5594
3.60962
3.65827
3.70522
3.75034
3.7935
3.8346
3.87359
3.91043
3.94519
3.97794
4.00875
4.0377
4.06487
4.09036
4.11429
4.13678
4.15796
4.17792
4.19678
4.21461
4.23149
4.24752
4.2628
4.27735
4.29113
4.30406
4.31602
4.32684
4.33631
4.34416
4.3501
4.3538
4.35496
4.35338
4.34868
4.34064
4.32929
4.31462
4.2967
4.2758
4.25225
4.22637
4.19852
4.16906
4.1384
4.10692
4.07497
4.04286
4.01084
3.9793
3.94852
3.91869
3.88991
3.86227
3.83576
3.81024
3.78546
3.7611
3.7367
3.71177
3.68574
3.65808
3.62835
3.59623
3.56156
3.52437
3.48493
3.44367
3.4012
3.35821
3.31542
3.27352
3.23317
3.19496
3.15932
3.12654
3.09675
3.06999
3.04538
3.01985
0.00287558
0.0275761
0.0546021
0.0696792
0.0794018
0.0864464
0.0919402
0.0964702
0.100399
0.103974
0.107375
0.11075
0.11422
0.117882
0.121811
0.126058
0.130657
0.135625
0.140971
0.146692
0.152782
0.159244
0.166093
0.173364
0.181099
0.189376
0.198263
0.207826
0.218142
0.229289
0.241337
0.254354
0.268396
0.28351
0.299732
0.317088
0.335597
0.35527
0.376117
0.398146
0.42137
0.445802
0.471459
0.498366
0.526549
0.556044
0.586883
0.619104
0.652743
0.687852
0.724482
0.76269
0.802532
0.844066
0.887354
0.932464
0.979458
1.02839
1.0793
1.1322
1.18713
1.24407
1.303
1.36389
1.42667
1.49126
1.55753
1.62535
1.69458
1.76505
1.83657
1.90897
1.98203
2.05554
2.12928
2.20304
2.27663
2.34989
2.42269
2.49492
2.56648
2.63734
2.70749
2.77694
2.84567
2.91367
2.98091
3.0474
3.11312
3.1781
3.2423
3.30574
3.36839
3.43021
3.49116
3.55114
3.61006
3.66782
3.72428
3.77931
3.83275
3.88444
3.93421
3.9819
4.02733
4.07037
4.11088
4.14873
4.18408
4.21706
4.24778
4.27632
4.3028
4.32736
4.35015
4.37134
4.39108
4.40954
4.42683
4.44306
4.45826
4.47256
4.48622
4.4993
4.5118
4.52368
4.53481
4.54513
4.55445
4.5625
4.56895
4.5734
4.57546
4.57479
4.57108
4.56377
4.55292
4.53839
4.52011
4.49824
4.47321
4.44532
4.41493
4.38245
4.34832
4.31299
4.27691
4.24045
4.20385
4.1676
4.13216
4.0978
4.06465
4.03299
4.00291
3.97437
3.9472
3.92113
3.89569
3.87031
3.84431
3.817
3.78771
3.75589
3.72116
3.68337
3.64262
3.59927
3.55394
3.50737
3.46038
3.41381
3.36852
3.32525
3.28464
3.24715
3.21309
3.18263
3.15507
3.12779
0.00298546
0.0312148
0.0598442
0.0756684
0.085902
0.0933297
0.0991208
0.103895
0.108039
0.111805
0.115373
0.118892
0.122485
0.126257
0.130285
0.13462
0.139301
0.144351
0.149785
0.155618
0.161861
0.168532
0.175658
0.183281
0.191456
0.200239
0.209706
0.219944
0.231008
0.242959
0.25585
0.269728
0.284633
0.300597
0.317644
0.335796
0.355067
0.375475
0.397041
0.419784
0.443729
0.468901
0.495337
0.523082
0.552188
0.582711
0.614699
0.648186
0.683243
0.719944
0.758362
0.79857
0.840641
0.884652
0.930683
0.978818
1.02913
1.08165
1.13641
1.19344
1.25275
1.31432
1.37814
1.44412
1.51217
1.58215
1.65391
1.72725
1.80198
1.87785
1.95464
2.03209
2.10996
2.18798
2.26593
2.34357
2.42075
2.49744
2.57355
2.64896
2.7235
2.79726
2.87036
2.94285
3.01469
3.08581
3.1562
3.22584
3.29474
3.3629
3.43032
3.497
3.56292
3.62804
3.6923
3.75562
3.81787
3.87893
3.93865
3.99685
4.05335
4.10794
4.16043
4.21057
4.25818
4.30307
4.34508
4.38402
4.42
4.45311
4.48342
4.51104
4.53613
4.55886
4.57944
4.59809
4.61505
4.63053
4.64473
4.65783
4.66996
4.68126
4.69203
4.70239
4.71241
4.72205
4.73122
4.73995
4.74817
4.75566
4.76206
4.76695
4.76988
4.77027
4.76787
4.76194
4.75231
4.73887
4.7214
4.69989
4.67461
4.6458
4.61378
4.57894
4.54178
4.50279
4.46251
4.42148
4.38007
4.33883
4.29833
4.25894
4.22079
4.18434
4.14993
4.11755
4.08723
4.05882
4.0319
4.00586
3.97999
3.95342
3.92527
3.8947
3.86104
3.82387
3.78307
3.73885
3.69171
3.64242
3.59187
3.54104
3.49096
3.44259
3.39675
3.35409
3.31516
3.28034
3.24914
3.21951
0.00303524
0.0346431
0.0646427
0.0810977
0.0917458
0.0994606
0.105466
0.110435
0.114761
0.118678
0.122366
0.125976
0.129639
0.133473
0.137558
0.141949
0.14669
0.151813
0.157347
0.163318
0.16975
0.176674
0.184126
0.192153
0.200809
0.210153
0.220249
0.231141
0.242908
0.255624
0.269312
0.284008
0.299745
0.316553
0.334464
0.353474
0.373601
0.394869
0.417311
0.44096
0.465858
0.492056
0.519616
0.548613
0.579142
0.611274
0.644984
0.680325
0.717455
0.756484
0.797503
0.840603
0.885874
0.933406
0.983286
1.03558
1.09034
1.1476
1.20738
1.26971
1.33457
1.40194
1.47174
1.54387
1.61819
1.69453
1.77266
1.85235
1.93329
2.01518
2.09768
2.18045
2.26315
2.34544
2.42716
2.50808
2.58792
2.66697
2.74527
2.8227
2.89905
2.97452
3.04933
3.12355
3.19724
3.27019
3.34235
3.41374
3.48438
3.55429
3.62351
3.69204
3.75987
3.827
3.89337
3.95892
4.02353
4.08708
4.14938
4.21026
4.2695
4.32684
4.38202
4.43475
4.48474
4.53176
4.57562
4.61624
4.65341
4.687
4.71705
4.74366
4.76696
4.78716
4.80453
4.81935
4.83196
4.84269
4.85184
4.85971
4.86667
4.87304
4.87896
4.88464
4.89021
4.89578
4.90131
4.9069
4.91259
4.91821
4.92346
4.92795
4.93119
4.93261
4.93165
4.92784
4.92038
4.90915
4.89392
4.87451
4.85077
4.82278
4.79072
4.75491
4.71581
4.67393
4.62989
4.58434
4.53799
4.49147
4.44535
4.4002
4.35636
4.31439
4.27477
4.2376
4.20313
4.17146
4.14225
4.11498
4.08896
4.06323
4.0367
4.00825
3.97682
3.94166
3.90233
3.85877
3.81129
3.76056
3.70748
3.65315
3.59877
3.54553
3.49444
3.44634
3.40205
3.36224
3.32664
3.294
0.00309135
0.037818
0.0689896
0.0859538
0.0968996
0.104801
0.110973
0.116122
0.120589
0.124601
0.128351
0.132005
0.135704
0.139573
0.143699
0.148139
0.152945
0.158162
0.163829
0.169986
0.176672
0.183925
0.191788
0.20031
0.209545
0.219553
0.230393
0.242104
0.254725
0.2683
0.282902
0.298584
0.315377
0.333335
0.352421
0.372593
0.393918
0.416454
0.440253
0.465371
0.49187
0.519824
0.549315
0.580436
0.613284
0.647939
0.684482
0.723042
0.763736
0.80667
0.851939
0.899639
0.949856
1.00267
1.05814
1.11631
1.17722
1.24088
1.30727
1.37639
1.44818
1.52258
1.59947
1.67873
1.76017
1.84359
1.92873
2.0153
2.10296
2.19133
2.27995
2.36836
2.45599
2.54217
2.62678
2.71002
2.79172
2.87239
2.95207
3.03073
3.10844
3.18517
3.26084
3.3356
3.40946
3.48218
3.55384
3.62452
3.69433
3.76334
3.83164
3.8993
3.96637
4.03289
4.09888
4.16432
4.22916
4.29329
4.35657
4.4188
4.47976
4.53919
4.59675
4.65203
4.70464
4.75421
4.80039
4.84284
4.88125
4.91543
4.94532
4.97096
4.99246
5.01
5.02386
5.03438
5.042
5.04713
5.05016
5.05128
5.05107
5.05003
5.04841
5.04662
5.04498
5.04374
5.04312
5.0433
5.04427
5.04595
5.04815
5.05058
5.0528
5.05433
5.0545
5.05292
5.04854
5.04061
5.02884
5.0128
4.99222
4.96694
4.93698
4.90247
4.8637
4.82109
4.7752
4.72672
4.67629
4.62467
4.57266
4.52108
4.47077
4.42239
4.37649
4.33338
4.29352
4.25731
4.22461
4.19505
4.1681
4.14284
4.11802
4.09224
4.0641
4.03235
3.99618
3.95512
3.90913
3.85868
3.80455
3.7479
3.69008
3.63248
3.57636
3.52276
3.4728
3.42746
3.38669
3.35031
0.00363186
0.0406986
0.0725756
0.0897924
0.100874