/*--------------------------------*- C++ -*----------------------------------*\
| =========                 |                                                 |
| \\      /  F ield         | OpenFOAM: The Open Source CFD Toolbox           |
|  \\    /   O peration     | Version:  2312                                  |
|   \\  /    A nd           | Website:  www.openfoam.com                      |
|    \\/     M anipulation  |                                                 |
\*---------------------------------------------------------------------------*/
FoamFile
{
    version     2.0;
    format      ascii;
    arch        "LSB;label=32;scalar=64";
    class       volScalarField;
    location    "0.2";
    object      kMean;
}
// * * * * * * * * * * * * * * * * * * * * * * * * * * * * * * * * * * * * * //

dimensions      [0 2 -2 0 0 0 0];

internalField   nonuniform List<scalar> 
12225
(
0.591481
1.72881
9.72056
9.55758
7.4035
5.03182
3.87488
3.34309
3.11552
3.02669
2.98198
2.95645
2.93148
2.9124
2.90954
2.89541
2.95247
2.87991
0.383999
0.483218
1.92288
3.39588
3.69879
3.64388
3.5404
3.43593
3.34947
3.28177
3.22201
3.17552
3.131
3.10078
3.06622
3.05044
3.01825
3.01193
0.376935
0.386589
0.514068
0.838029
1.14111
1.25495
1.38829
1.4982
1.59095
1.67937
1.7653
1.84718
1.92143
1.9805
2.02942
2.06748
2.09254
2.11519
0.376622
0.378732
0.394406
0.432408
0.500285
0.540254
0.566998
0.597534
0.622177
0.658175
0.688541
0.734469
0.771173
0.824399
0.860157
0.915362
0.943137
0.99759
0.376693
0.377582
0.38111
0.388734
0.402725
0.411392
0.414509
0.416009
0.416408
0.417521
0.418968
0.422429
0.425999
0.433408
0.438835
0.449615
0.455781
0.469289
0.376609
0.377129
0.378612
0.381243
0.38602
0.389591
0.390064
0.38925
0.387636
0.385446
0.383028
0.380793
0.378396
0.376707
0.37482
0.373844
0.372481
0.372201
0.376558
0.376788
0.377588
0.37901
0.381179
0.383237
0.383822
0.38327
0.38212
0.380469
0.378639
0.376625
0.374617
0.372561
0.370624
0.368676
0.36689
0.365094
0.37648
0.376503
0.376843
0.377691
0.378911
0.380109
0.380635
0.380363
0.379591
0.378444
0.37714
0.375663
0.374187
0.372613
0.371126
0.369566
0.368139
0.366626
0.376362
0.376193
0.376179
0.376622
0.377309
0.377945
0.378225
0.378009
0.377424
0.376573
0.375586
0.374477
0.373344
0.372154
0.370995
0.369804
0.36866
0.367496
0.376326
0.376135
0.375798
0.375803
0.376015
0.376184
0.376133
0.375795
0.375226
0.374496
0.37367
0.372771
0.371844
0.370893
0.369944
0.368996
0.368045
0.367122
0.376321
0.376042
0.375418
0.375013
0.374819
0.374616
0.374263
0.373733
0.373073
0.372329
0.371536
0.370712
0.369875
0.369038
0.368199
0.367383
0.366543
0.365767
0.376215
0.375873
0.375068
0.37437
0.37385
0.373353
0.372763
0.372056
0.371272
0.370449
0.369609
0.368768
0.367928
0.367108
0.36629
0.365511
0.364705
0.363986
0.376085
0.375668
0.374744
0.373828
0.373037
0.372282
0.371482
0.370614
0.369705
0.368782
0.367862
0.36696
0.366073
0.365219
0.364374
0.36358
0.362762
0.362045
0.375876
0.375395
0.374394
0.373307
0.372283
0.371295
0.370292
0.369262
0.368221
0.367188
0.366173
0.365187
0.364224
0.363302
0.362397
0.361549
0.360687
0.359928
0.375588
0.374975
0.373875
0.372653
0.371451
0.370287
0.369136
0.367987
0.366846
0.365723
0.364625
0.363561
0.362526
0.361534
0.360565
0.359651
0.358739
0.357915
0.375455
0.374686
0.373429
0.372056
0.370706
0.369407
0.368142
0.3669
0.365683
0.364493
0.363333
0.36221
0.361118
0.360069
0.359048
0.358079
0.357123
0.35624
0.375253
0.374383
0.373076
0.371657
0.370237
0.368859
0.367519
0.36621
0.364931
0.363684
0.362469
0.361293
0.360151
0.359051
0.357986
0.356968
0.355975
0.355043
0.375101
0.37407
0.372649
0.371138
0.369641
0.368194
0.366797
0.365445
0.364133
0.36286
0.361623
0.360425
0.359266
0.358147
0.357069
0.356032
0.355034
0.354078
0.375039
0.373948
0.372476
0.370944
0.369446
0.368002
0.366617
0.365281
0.363986
0.362727
0.361504
0.360317
0.359168
0.358057
0.356987
0.355955
0.354965
0.354008
0.375167
0.374215
0.372831
0.371348
0.369901
0.368527
0.367222
0.365967
0.364748
0.363554
0.362384
0.36124
0.360129
0.359051
0.358012
0.357004
0.356042
0.355103
0.375323
0.374522
0.373285
0.371928
0.370599
0.369365
0.368213
0.367112
0.366029
0.364947
0.363865
0.362793
0.36174
0.36071
0.359712
0.35874
0.357809
0.356896
0.375418
0.374698
0.37353
0.372281
0.371126
0.370123
0.369238
0.368401
0.367548
0.366649
0.365711
0.364752
0.363788
0.362829
0.361888
0.360962
0.360067
0.35918
0.375567
0.374972
0.373936
0.372837
0.371936
0.371301
0.370826
0.370374
0.36983
0.369148
0.368345
0.367467
0.366546
0.365605
0.36466
0.363715
0.362789
0.361862
0.375673
0.375143
0.374166
0.373198
0.372665
0.372553
0.372666
0.372778
0.372658
0.372235
0.371552
0.370708
0.369751
0.368735
0.367677
0.366598
0.36552
0.364427
0.375839
0.375375
0.374428
0.373652
0.373662
0.374191
0.375085
0.376081
0.376633
0.376578
0.376049
0.375223
0.374154
0.372957
0.37167
0.370315
0.368997
0.367593
0.375965
0.375589
0.374642
0.374292
0.375211
0.377298
0.38128
0.385369
0.388223
0.389567
0.390013
0.389883
0.389479
0.388858
0.388327
0.387744
0.387544
0.387109
0.376237
0.375887
0.375205
0.376138
0.382152
0.396318
0.423545
0.448154
0.467468
0.479603
0.492327
0.501943
0.514554
0.5249
0.539592
0.551725
0.568936
0.582858
0.376487
0.377023
0.379936
0.39282
0.465971
0.627827
0.847051
0.987666
1.06854
1.1377
1.21114
1.27598
1.33981
1.39797
1.45961
1.51516
1.57608
1.62777
0.378403
0.399767
0.459947
0.665581
1.72069
2.84841
3.49649
3.52284
3.50333
3.46861
3.43937
3.40955
3.38396
3.36525
3.34673
3.33185
3.31476
3.29985
0.501341
1.0383
1.80614
3.41191
9.40598
10.0546
8.79732
6.48971
4.97935
4.1232
3.679
3.45338
3.33825
3.27923
3.24056
3.21321
3.18293
3.15735
4.76711e-06
4.13816e-05
0.000113756
0.000327553
0.000797846
0.0014682
0.00223008
0.00300381
0.00373461
0.00438403
0.00493193
0.00536151
0.00567467
0.00583332
0.00587618
0.00583093
0.00567642
0.00541174
0.00504576
0.00459571
0.00408904
0.00356108
0.00304988
0.00259394
0.00223259
0.00197599
0.00187507
0.00192032
0.0021381
0.00265132
0.0035094
0.0045346
0.00558022
0.0065826
0.00752804
0.00842793
0.00930387
0.0101794
0.0110762
0.012012
0.0130009
0.0140502
0.0151516
0.0162602
0.0172989
0.0180958
0.0185539
0.0187391
0.0186785
0.0185236
0.018473
0.0185604
0.0188826
0.0197482
0.0222733
0.0278885
0.0372029
0.0508188
0.068701
0.0898029
0.113298
0.138642
0.165414
0.193274
0.22195
0.25122
0.280906
0.310862
0.340967
0.371118
0.401221
0.431189
0.460934
0.490378
0.519461
0.548146
0.576391
0.604163
0.631432
0.658171
0.684356
0.709966
0.734985
0.759395
0.783183
0.806334
0.828828
0.850649
0.871776
0.892191
0.911872
0.9308
0.948955
0.966316
0.982862
0.998572
1.01343
1.0274
1.04049
1.05265
1.06388
1.07416
1.08346
1.09178
1.0991
1.10542
1.11072
1.11502
1.11833
1.12062
1.12191
1.12224
1.12163
1.12004
1.11753
1.11409
1.10976
1.10455
1.09845
1.09151
1.08375
1.07517
1.06582
1.05571
1.04487
1.03334
1.02113
1.00828
0.99483
0.980803
0.966237
0.951166
0.935627
0.919654
0.903287
0.886562
0.869518
0.852191
0.834621
0.816845
0.798902
0.78083
0.762667
0.744449
0.726214
0.707995
0.689827
0.671743
0.653774
0.635949
0.618296
0.600841
0.583608
0.566619
0.549893
0.533448
0.517299
0.50146
0.485955
0.470857
0.456484
0.44333
0.431312
0.42019
0.409971
0.400788
0.392687
0.385829
0.380009
0.37546
0.372751
0.373569
0.37901
0.386262
0.393649
0.400276
0.407305
0.40995
0.416095
0.388986
1.15938e-05
9.56561e-05
0.000614994
0.0020942
0.00491601
0.00827807
0.0116075
0.0145897
0.0170888
0.0190747
0.0205712
0.0216183
0.0222548
0.0224853
0.0224502
0.0220857
0.0213077
0.0201814
0.018758
0.0171149
0.0153503
0.0135834
0.0119273
0.0105593
0.00960807
0.00921804
0.0094596
0.010599
0.0131019
0.0171774
0.0221028
0.0268929
0.0312397
0.0351578
0.0387605
0.0421884
0.0455792
0.0490525
0.0527054
0.0566131
0.0608241
0.0653394
0.0700677
0.0747794
0.0790808
0.0824453
0.0846771
0.0860703
0.0876175
0.0904001
0.0952527
0.102619
0.112695
0.125727
0.141926
0.16099
0.182145
0.204649
0.227678
0.250756
0.273815
0.296775
0.319612
0.342304
0.364848
0.387242
0.409488
0.431593
0.453572
0.47544
0.497224
0.518945
0.540568
0.561989
0.583089
0.603874
0.624342
0.644496
0.664333
0.683851
0.703046
0.721909
0.740445
0.75866
0.77656
0.794167
0.811485
0.828513
0.845246
0.861675
0.877792
0.893588
0.909055
0.924182
0.938961
0.953381
0.967432
0.981106
0.994398
1.0073
1.0198
1.0319
1.04358
1.05482
1.06562
1.07597
1.08587
1.09532
1.10432
1.11287
1.12097
1.12863
1.13586
1.14267
1.14907
1.15507
1.16067
1.16589
1.17072
1.17517
1.17924
1.18294
1.18627
1.18924
1.19186
1.19413
1.19607
1.19767
1.19896
1.19992
1.20059
1.20096
1.20104
1.20084
1.20037
1.19965
1.19868
1.19746
1.19601
1.19433
1.19243
1.19032
1.18801
1.1855
1.18281
1.17993
1.17688
1.17365
1.17026
1.1667
1.16298
1.15911
1.15507
1.15088
1.14652
1.142
1.13731
1.13245
1.1274
1.12217
1.11678
1.11126
1.10563
1.09984
1.09391
1.08785
1.08168
1.0754
1.06899
1.06248
1.05589
1.04936
1.04292
1.03635
1.0293
1.02219
1.01344
1.00629
0.994147
0.959231
1.25264e-05
0.000256955
0.00165238
0.00541623
0.011077
0.0166891
0.0215679
0.0255552
0.0287107
0.0311528
0.0329935
0.0343232
0.0352089
0.0356963
0.0358644
0.0357135
0.035217
0.0344103
0.0333178
0.0319836
0.0304846
0.0289434
0.0275407
0.0265203
0.0262545
0.0272225
0.029893
0.0344179
0.0404186
0.0470555
0.0535447
0.0596748
0.0654916
0.0711121
0.0766706
0.0822941
0.088088
0.094124
0.100433
0.107003
0.11378
0.120672
0.127557
0.134321
0.140934
0.147513
0.154406
0.162102
0.171108
0.18184
0.194597
0.209581
0.226904
0.246485
0.268011
0.290981
0.314881
0.339295
0.363934
0.388693
0.413538
0.438443
0.463393
0.488375
0.513376
0.538384
0.563384
0.588359
0.61329
0.638148
0.662897
0.687494
0.71193
0.736257
0.760552
0.784811
0.809014
0.833147
0.857193
0.881141
0.90498
0.928701
0.952292
0.975736
0.999015
1.0221
1.04497
1.06762
1.09002
1.11217
1.13405
1.15566
1.17699
1.19801
1.21872
1.2391
1.25914
1.27882
1.29812
1.31703
1.33553
1.35359
1.37122
1.3884
1.40512
1.42138
1.43718
1.45252
1.46739
1.48179
1.49572
1.50917
1.52214
1.53464
1.54665
1.55817
1.56919
1.57972
1.58975
1.59928
1.6083
1.61682
1.62483
1.63233
1.63932
1.64581
1.6518
1.65728
1.66226
1.66674
1.67072
1.67421
1.67723
1.67976
1.6818
1.68338
1.6845
1.68516
1.68536
1.68512
1.68442
1.6833
1.68174
1.67977
1.67738
1.67458
1.67139
1.6678
1.66382
1.65947
1.65474
1.64964
1.64418
1.63836
1.63219
1.62566
1.61878
1.61154
1.60396
1.59603
1.58776
1.57917
1.57026
1.56102
1.55145
1.54158
1.5314
1.52093
1.51016
1.4991
1.48777
1.47619
1.46437
1.45225
1.4396
1.4268
1.41271
1.39976
1.38375
1.34967
4.96074e-05
0.000793635
0.0046114
0.0126602
0.0208
0.0273836
0.0324317
0.036264
0.0391736
0.0413746
0.0430164
0.0442033
0.0450083
0.0454856
0.0456985
0.0456426
0.0453512
0.0448586
0.044208
0.043468
0.0427499
0.0422285
0.0421591
0.042882
0.0447851
0.0481972
0.0532234
0.0596113
0.066792
0.0741668
0.081435
0.088564
0.0956294
0.102735
0.109976
0.117418
0.125087
0.132972
0.141032
0.149217
0.157489
0.165854
0.174384
0.183238
0.192694
0.203115
0.214843
0.228142
0.24318
0.260063
0.278834
0.299465
0.321866
0.345876
0.371252
0.397726
0.425025
0.45292
0.481248
0.509911
0.538845
0.568003
0.597348
0.626849
0.656478
0.686208
0.716016
0.745877
0.77577
0.805672
0.835563
0.865428
0.895262
0.925065
0.954833
0.984547
1.01419
1.04373
1.07317
1.10247
1.13163
1.16063
1.18944
1.21806
1.24646
1.27462
1.30254
1.33018
1.35755
1.38462
1.41138
1.43782
1.46392
1.48966
1.51503
1.54001
1.56459
1.58874
1.61246
1.63571
1.65849
1.68079
1.70259
1.72387
1.74463
1.76486
1.78455
1.80368
1.82225
1.84024
1.85766
1.87448
1.8907
1.90632
1.92132
1.93569
1.94944
1.96254
1.97501
1.98682
1.99798
2.0085
2.01835
2.02755
2.03609
2.04397
2.05119
2.05775
2.06366
2.06892
2.07352
2.07748
2.08081
2.08349
2.08554
2.08698
2.0878
2.08801
2.08762
2.08663
2.08505
2.0829
2.08017
2.07689
2.07305
2.06868
2.06378
2.05835
2.05242
2.04599
2.03907
2.03167
2.0238
2.01546
2.00668
1.99745
1.98777
1.97767
1.96714
1.95619
1.94483
1.93307
1.92092
1.90838
1.89544
1.88213
1.86846
1.85442
1.84003
1.8253
1.81023
1.79487
1.77921
1.76324
1.74682
1.73024
1.71283
1.69615
1.67786
1.64603
0.000248296
0.0022373
0.0108531
0.0225893
0.0315155
0.037895
0.0425225
0.0459479
0.0485121
0.0504326
0.0518558
0.0528846
0.053595
0.0540548
0.0543056
0.054391
0.0543628
0.0542804
0.0542227
0.0543018
0.054676
0.0555602
0.0572197
0.0599388
0.0639553
0.0693695
0.0760418
0.0836276
0.0916729
0.0998435
0.108006
0.116163
0.124376
0.132711
0.141216
0.149903
0.158759
0.16777
0.17695
0.186376
0.196183
0.206554
0.217725
0.229962
0.243501
0.258534
0.275197
0.293558
0.313627
0.335369
0.358714
0.383574
0.409836
0.437372
0.466035
0.495676
0.526145
0.557311
0.589065
0.62132
0.654005
0.687062
0.720441
0.754098
0.787994
0.822094
0.856367
0.890781
0.925308
0.959924
0.994602
1.02932
1.06406
1.0988
1.13352
1.16818
1.20277
1.23727
1.27163
1.30585
1.33989
1.37374
1.40737
1.44077
1.4739
1.50676
1.53932
1.57157
1.60349
1.63505
1.66625
1.69707
1.72748
1.75747
1.78702
1.81611
1.84472
1.87283
1.90043
1.92748
1.95399
1.97993
2.00528
2.03003
2.05416
2.07766
2.10051
2.1227
2.14421
2.16504
2.18517
2.20458
2.22327
2.24121
2.25842
2.27486
2.29054
2.30545
2.31958
2.33293
2.34548
2.35725
2.36822
2.37839
2.38777
2.39635
2.40413
2.41112
2.41732
2.42272
2.42734
2.43118
2.43425
2.43655
2.43809
2.43888
2.43893
2.43824
2.43682
2.43469
2.43185
2.42831
2.4241
2.41921
2.41366
2.40746
2.40063
2.39318
2.38513
2.37648
2.36726
2.35746
2.34712
2.33624
2.32483
2.31291
2.30048
2.28756
2.27417
2.2603
2.24598
2.23121
2.21601
2.20037
2.18431
2.16783
2.15095
2.13368
2.11602
2.098
2.07964
2.06095
2.04196
2.02267
2.00305
1.9833
1.96307
1.94341
1.92298
1.89229
0.000696234
0.00514291
0.019412
0.0323787
0.0411024
0.0471211
0.0514416
0.054621
0.0569873
0.0587508
0.0600573
0.0610153
0.0617126
0.0622227
0.0626118
0.0629498
0.0633138
0.0637951
0.0645078
0.0655963
0.0672383
0.069639
0.0730097
0.0775267
0.0832748
0.0901779
0.0980227
0.106481
0.115243
0.124116
0.133029
0.141991
0.15104
0.160216
0.169554
0.179089
0.188884
0.199051
0.20974
0.221128
0.233411
0.246791
0.261449
0.277538
0.295165
0.314388
0.335217
0.35762
0.381539
0.406901
0.433627
0.461634
0.490839
0.521158
0.552509
0.584808
0.617973
0.651924
0.686587
0.721894
0.757782
0.794193
0.831075
0.868379
0.906059
0.944072
0.982379
1.02094
1.05972
1.09869
1.1378
1.17704
1.21635
1.25571
1.29509
1.33444
1.37374
1.41295
1.45203
1.49096
1.5297
1.56822
1.60651
1.64452
1.68223
1.71963
1.75669
1.79339
1.8297
1.86561
1.90109
1.93613
1.9707
2.00477
2.03834
2.07136
2.10384
2.13573
2.16702
2.19769
2.22772
2.25708
2.28576
2.31374
2.341
2.36751
2.39327
2.41825
2.44244
2.46583
2.48838
2.5101
2.53096
2.55096
2.57008
2.58831
2.60565
2.62207
2.63759
2.65218
2.66585
2.67859
2.6904
2.70128
2.71123
2.72025
2.72833
2.73549
2.74173
2.74704
2.75143
2.75492
2.75751
2.75921
2.76003
2.75997
2.75906
2.75729
2.75468
2.75124
2.74698
2.74192
2.73607
2.72945
2.72207
2.71395
2.7051
2.69554
2.68529
2.67436
2.66277
2.65055
2.63769
2.62423
2.61019
2.59557
2.58039
2.56467
2.54843
2.53168
2.51444
2.49672
2.47852
2.45987
2.44077
2.42123
2.40127
2.3809
2.36014
2.339
2.31751
2.2957
2.27359
2.25123
2.22862
2.20594
2.18304
2.16066
2.13801
2.10727
0.00131946
0.0094083
0.0278358
0.0411143
0.0496546
0.0554977
0.0596846
0.062761
0.065048
0.0667555
0.0680356
0.0690114
0.069783
0.0704421
0.0710784
0.0717854
0.0726656
0.0738355
0.0754294
0.0776001
0.0805123
0.0843293
0.0891847
0.0951484
0.102176
0.110127
0.118765
0.127827
0.137103
0.146474
0.155904
0.165416
0.175063
0.184923
0.195101
0.205725
0.216942
0.228909
0.24179
0.255752
0.270949
0.287508
0.305517
0.32503
0.346059
0.368588
0.392578
0.417973
0.444712
0.472731
0.501968
0.532366
0.563872
0.596439
0.630021
0.664575
0.700055
0.736416
0.77361
0.811587
0.850296
0.889687
0.92971
0.970315
1.01145
1.05308
1.09515
1.13761
1.18041
1.22353
1.26689
1.31047
1.35421
1.39808
1.44201
1.48597
1.5299
1.57377
1.61753
1.66113
1.70454
1.74773
1.79064
1.83326
1.87555
1.91748
1.95902
2.00016
2.04086
2.08109
2.12085
2.16009
2.19879
2.23694
2.27449
2.31143
2.34773
2.38337
2.41832
2.45255
2.48604
2.51877
2.55071
2.58184
2.61214
2.64159
2.67015
2.69782
2.72458
2.7504
2.77527
2.79917
2.82208
2.84399
2.86489
2.88477
2.90361
2.92141
2.93815
2.95384
2.96847
2.98204
2.99453
3.00596
3.01632
3.02561
3.03384
3.04101
3.04712
3.05218
3.0562
3.05918
3.06114
3.06209
3.06204
3.06099
3.05897
3.05598
3.05204
3.04716
3.04136
3.03465
3.02706
3.01859
3.00928
2.99913
2.98816
2.9764
2.96387
2.95058
2.93655
2.92182
2.90639
2.89029
2.87355
2.85617
2.8382
2.81964
2.80051
2.78085
2.76066
2.73996
2.71877
2.69711
2.67499
2.65241
2.62941
2.606
2.58219
2.558
2.53347
2.50862
2.48351
2.45817
2.43266
2.40715
2.38161
2.35658
2.33158
2.29996
0.00195281
0.0143203
0.0354724
0.048972
0.0575326
0.06339
0.0675904
0.0706788
0.0729811
0.0747138
0.0760495
0.0771243
0.0780531
0.0789474
0.079918
0.081079
0.0825515
0.0844649
0.0869562
0.0901641
0.0942196
0.0992278
0.105245
0.112245
0.120129
0.128727
0.137829
0.147241
0.156831
0.166544
0.176393
0.186448
0.196823
0.207655
0.219088
0.231266
0.244337
0.258445
0.273722
0.290278
0.308196
0.327526
0.348288
0.370481
0.394082
0.419056
0.44536
0.472945
0.501766
0.531779
0.562945
0.595231
0.62861
0.663059
0.698559
0.735089
0.772631
0.811161
0.850649
0.891064
0.932366
0.974517
1.01747
1.06118
1.1056
1.15067
1.19635
1.24259
1.28932
1.33649
1.38405
1.43193
1.48008
1.52843
1.57693
1.62551
1.67411
1.72268
1.77116
1.81949
1.86763
1.91552
1.96313
2.01041
2.05733
2.10384
2.14993
2.19555
2.24069
2.2853
2.32936
2.37285
2.41572
2.45796
2.49953
2.54041
2.58055
2.61994
2.65854
2.69633
2.73328
2.76935
2.80453
2.83877
2.87207
2.90439
2.93571
2.966
2.99525
3.02343
3.05052
3.07651
3.10138
3.1251
3.14768
3.16909
3.18932
3.20837
3.22622
3.24288
3.25833
3.27258
3.28562
3.29745
3.30808
3.3175
3.32573
3.33276
3.3386
3.34325
3.34674
3.34907
3.35025
3.3503
3.34923
3.34705
3.34377
3.33942
3.33401
3.32756
3.32009
3.31161
3.30214
3.29171
3.28034
3.26804
3.25485
3.24078
3.22586
3.21011
3.19356
3.17623
3.15814
3.13932
3.11979
3.09959
3.07874
3.05727
3.0352
3.01255
2.98936
2.96564
2.94142
2.91672
2.89154
2.86593
2.83988
2.81343
2.7866
2.7594
2.73187
2.70405
2.67598
2.64774
2.61939
2.5911
2.5629
2.53524
2.50778
2.47474
0.002487
0.0190859
0.0422367
0.0561917
0.0649912
0.0710134
0.0753378
0.0785274
0.0809207
0.0827502
0.084213
0.0854514
0.0866
0.0877884
0.0891446
0.0907973
0.0928765
0.0955122
0.0988294
0.102938
0.107923
0.113831
0.120649
0.128307
0.136686
0.145626
0.154972
0.164605
0.174469
0.184576
0.195
0.205851
0.217262
0.22937
0.242316
0.256232
0.271238
0.287434
0.304896
0.323678
0.343809
0.365298
0.388139
0.412313
0.437793
0.46455
0.492551
0.521767
0.55217
0.583736
0.616449
0.650295
0.685268
0.721362
0.758576
0.796911
0.836362
0.876922
0.91858
0.961315
1.0051
1.04991
1.0957
1.14243
1.19006
1.23853
1.28778
1.33776
1.38841
1.43965
1.49142
1.54365
1.59625
1.64916
1.70229
1.75557
1.80893
1.86229
1.91557
1.96872
2.02167
2.07436
2.12674
2.17875
2.23037
2.28154
2.33223
2.3824
2.43202
2.48106
2.52948
2.57724
2.62432
2.67068
2.71629
2.76111
2.8051
2.84824
2.89048
2.9318
2.97217
3.01155
3.0499
3.08721
3.12344
3.15857
3.19256
3.22539
3.25703
3.28747
3.31668
3.34465
3.37134
3.39676
3.42088
3.44368
3.46517
3.48532
3.50413
3.5216
3.53772
3.5525
3.56592
3.57799
3.58872
3.5981
3.60615
3.61287
3.61827
3.62235
3.62514
3.62664
3.62688
3.62585
3.6236
3.62011
3.61543
3.60956
3.60253
3.59435
3.58505
3.57465
3.56317
3.55064
3.53709
3.52253
3.50699
3.4905
3.47308
3.45477
3.43558
3.41555
3.39471
3.37308
3.35069
3.32758
3.30378
3.27931
3.25422
3.22852
3.20226
3.17546
3.14816
3.12037
3.09212
3.06343
3.03433
3.00484
2.97499
2.9448
2.91431
2.88356
2.8526
2.82152
2.79038
2.75936
2.72851
2.69824
2.66822
2.63351
0.00291556
0.0232672
0.048393
0.0629993
0.0721678
0.0784503
0.0829769
0.0863359
0.0888792
0.0908653
0.0925036
0.0939495
0.0953546
0.0968637
0.0986164
0.100749
0.10339
0.106664
0.110671
0.115488
0.121157
0.127669
0.134977
0.143006
0.151647
0.160782
0.170323
0.180225
0.190495
0.20119
0.212399
0.224238
0.236835
0.250313
0.264788
0.280356
0.297094
0.315057
0.334284
0.354792
0.376589
0.39967
0.424022
0.449631
0.47648
0.50455
0.533827
0.564298
0.595955
0.628794
0.662815
0.698022
0.734424
0.772032
0.810859
0.850918
0.89222
0.93477
0.978569
1.02361
1.06988
1.11735
1.16599
1.21577
1.26664
1.31854
1.37142
1.4252
1.47983
1.53522
1.59128
1.64794
1.70509
1.76265
1.82052
1.8786
1.93682
1.99506
2.05325
2.1113
2.16914
2.2267
2.28392
2.34074
2.39711
2.45298
2.50832
2.56307
2.61721
2.67068
2.72347
2.77552
2.82679
2.87726
2.92687
2.97559
3.02339
3.07022
3.11604
3.16082
3.20452
3.24711
3.28855
3.32881
3.36786
3.40566
3.44219
3.47741
3.51131
3.54385
3.57502
3.60479
3.63315
3.66008
3.68555
3.70957
3.73211
3.75318
3.77275
3.79084
3.80743
3.82252
3.83612
3.84823
3.85885
3.86798
3.87565
3.88185
3.8866
3.88991
3.89179
3.89227
3.89135
3.88907
3.88543
3.88046
3.87418
3.86661
3.85777
3.8477
3.83641
3.82393
3.81029
3.79551
3.77963
3.76267
3.74465
3.72562
3.70559
3.68461
3.66269
3.63986
3.61617
3.59164
3.56631
3.5402
3.51337
3.48583
3.45765
3.42884
3.39944
3.36951
3.33906
3.30814
3.27677
3.24499
3.21282
3.18029
3.14743
3.11428
3.08086
3.04722
3.01343
2.97956
2.9457
2.912
2.87854
2.84569
2.81313
2.77671
0.0032533
0.0271451
0.0541698
0.0694813
0.0790826
0.0856839
0.0904648
0.0940382
0.0967724
0.0989521
0.100793
0.102467
0.104139
0.105964
0.108088
0.110647
0.113765
0.11755
0.122084
0.127415
0.133535
0.140416
0.148023
0.156273
0.165099
0.174437
0.184254
0.194551
0.205363
0.216763
0.228847
0.241719
0.255485
0.270239
0.28606
0.303012
0.321137
0.340466
0.361014
0.382789
0.40579
0.430016
0.45546
0.482118
0.509986
0.539062
0.569349
0.60085
0.633576
0.667539
0.702754
0.739243
0.777026
0.816129
0.856577
0.898392
0.941596
0.986204
1.03223
1.07967
1.12852
1.17877
1.23038
1.28333
1.33756
1.39302
1.44964
1.50737
1.5661
1.62576
1.68624
1.74745
1.80927
1.8716
1.93432
1.99732
2.06048
2.1237
2.18687
2.24989
2.31267
2.37515
2.43723
2.49887
2.56
2.62057
2.68053
2.73984
2.79845
2.85632
2.9134
2.96966
3.02504
3.07951
3.13303
3.18553
3.237
3.28737
3.33662
3.38469
3.43156
3.47718
3.52151
3.56452
3.60617
3.64644
3.68528
3.72267
3.75858
3.79299
3.82587
3.8572
3.88696
3.91514
3.94172
3.96668
3.99002
4.01173
4.0318
4.05023
4.06702
4.08217
4.09568
4.10755
4.1178
4.12644
4.13346
4.13889
4.14274
4.14503
4.14577
4.14498
4.14268
4.1389
4.13366
4.12699
4.1189
4.10943
4.0986
4.08644
4.07298
4.05825
4.04228
4.0251
4.00675
3.98725
3.96663
3.94493
3.92219
3.89842
3.87367
3.84797
3.82135
3.79385
3.7655
3.73634
3.70641
3.67576
3.64442
3.61245
3.57988
3.54676
3.51314
3.47905
3.44454
3.40964
3.37439
3.33883
3.30298
3.26689
3.2306
3.19414
3.15758
3.12101
3.08451
3.04822
3.01223
2.97688
2.94181
2.90371
0.00349502
0.0308847
0.0596135
0.075628
0.0856873
0.0926347
0.097694
0.101502
0.104446
0.106833
0.108885
0.110786
0.112713
0.114825
0.117271
0.120183
0.123676
0.127844
0.13275
0.138423
0.14485
0.151991
0.159792
0.168223
0.177259
0.18686
0.197028
0.207791
0.219201
0.231331
0.244264
0.258083
0.272866
0.288679
0.305573
0.323588
0.342751
0.363079
0.384581
0.407266
0.431138
0.456203
0.482469
0.509944
0.538639
0.56857
0.599755
0.632214
0.665973
0.701058
0.737501
0.775333
0.814591
0.855311
0.897524
0.941259
0.986547
1.03341
1.08187
1.13193
1.18359
1.23684
1.29165
1.34799
1.40581
1.46506
1.52566
1.58753
1.65058
1.71471
1.77979
1.84572
1.91236
1.97958
2.04726
2.11524
2.18341
2.25163
2.31978
2.38776
2.45546
2.5228
2.58968
2.65606
2.72185
2.78701
2.85147
2.91519
2.97813
3.04022
3.10142
3.16169
3.22097
3.27922
3.33639
3.39244
3.44731
3.50096
3.55335
3.60442
3.65415
3.70249
3.74939
3.79483
3.83875
3.88114
3.92195
3.96116
3.99873
4.03464
4.06888
4.1014
4.13221
4.16128
4.18859
4.21414
4.23791
4.25991
4.28012
4.29854
4.31518
4.33004
4.34312
4.35444
4.36399
4.3718
4.37787
4.38222
4.38488
4.38585
4.38515
4.38282
4.37887
4.37334
4.36624
4.35762
4.34749
4.33589
4.32285
4.3084
4.29258
4.27542
4.25696
4.23723
4.21626
4.19409
4.17075
4.14628
4.12072
4.09409
4.06644
4.03779
4.00819
3.97767
3.94626
3.91401
3.88097
3.84717
3.81267
3.77751
3.74175
3.70543
3.66861
3.63135
3.59369
3.55568
3.51738
3.47881
3.44002
3.40105
3.36194
3.32274
3.28352
3.24436
3.20533
3.16658
3.12817
3.09047
3.053
3.01336
0.00365133
0.0344347
0.0647023
0.0813915
0.0919001
0.0991875
0.10452
0.108558
0.111709
0.114296
0.116548
0.118659
0.120813
0.123172
0.125884
0.129076
0.132854
0.1373
0.142468
0.148377
0.155015
0.162355
0.170361
0.179
0.188252
0.198139
0.208689
0.219932
0.231921
0.244717
0.258387
0.272991
0.288586
0.305217
0.322922
0.341727
0.361653
0.382717
0.404933
0.428316
0.452882
0.47865
0.505641
0.53388
0.563395
0.594218
0.626381
0.659917
0.694862
0.731256
0.769142
0.808565
0.849568
0.892192
0.936481
0.982477
1.03022
1.07973
1.13103
1.18414
1.23904
1.29572
1.35416
1.41432
1.47614
1.53956
1.60449
1.67082
1.73846
1.80727
1.87713
1.9479
2.01944
2.09158
2.16419
2.23711
2.31019
2.38329
2.45628
2.52905
2.60148
2.67347
2.74494
2.81582
2.88602
2.9555
3.02419
3.09203
3.15897
3.22495
3.28992
3.35383
3.41663
3.47827
3.53869
3.59785
3.6557
3.71218
3.76725
3.82087
3.87299
3.92356
3.97255
4.01992
4.06562
4.10963
4.15191
4.19243
4.23117
4.26809
4.30317
4.3364
4.36775
4.39722
4.42479
4.45044
4.47418
4.496
4.51589
4.53386
4.54991
4.56405
4.57629
4.58663
4.59509
4.60168
4.60642
4.60933
4.61043
4.60974
4.60728
4.60309
4.59718
4.5896
4.58037
4.56952
4.5571
4.54313
4.52766
4.51071
4.49233
4.47256
4.45143
4.42899
4.40527
4.38031
4.35415
4.32681
4.29835
4.26879
4.23818
4.20654
4.17392
4.14035
4.10587
4.07053
4.03436
3.99743
3.95977
3.92145
3.88252
3.84305
3.80309
3.76271
3.72197
3.68092
3.63962
3.59813
3.55648
3.51474
3.47293
3.43113
3.38938
3.34778
3.30638
3.26536
3.22469
3.18484
3.14512
3.10419
0.00373486
0.0377893
0.069412
0.0867079
0.09762
0.10521
0.110785
0.115027
0.118362
0.121125
0.123553
0.125847
0.128194
0.130757
0.133683
0.137093
0.141086
0.145738
0.151097
0.157183
0.163989
0.171503
0.179699
0.188559
0.198081
0.208272
0.219174
0.230852
0.243345
0.256706
0.270981
0.286217
0.302457
0.319737
0.338086
0.357532
0.378097
0.399807
0.422685
0.446758
0.472055
0.498606
0.526452
0.555637
0.586205
0.6182
0.651664
0.686642
0.723186
0.761351
0.801191
0.842758
0.886104
0.931277
0.978325
1.0273
1.07822
1.13113
1.18603
1.24292
1.30179
1.36262
1.42536
1.48997
1.55636
1.62443
1.69409
1.76522
1.83767
1.91131
1.98599
2.06156
2.13785
2.21471
2.29197
2.36949
2.44711
2.52468
2.60209
2.67921
2.75592
2.83213
2.90773
2.98265
3.0568
3.13012
3.20252
3.27396
3.34436
3.41368
3.48185
3.54882
3.61454
3.67895
3.742
3.80364
3.86381
3.92248
3.97958
4.03508
4.08892
4.14106
4.19146
4.24009
4.28689
4.33185
4.37493
4.41609
4.45532
4.49258
4.52786
4.56114
4.59241
4.62165
4.64885
4.67401
4.69712
4.71817
4.73718
4.75414
4.76906
4.78195
4.79283
4.8017
4.80858
4.81349
4.81645
4.81747
4.81659
4.81383
4.80922
4.80278
4.79456
4.78458
4.77289
4.75951
4.7445
4.72788
4.7097
4.69
4.66883
4.64622
4.62223
4.59689
4.57024
4.54233
4.5132
4.48289
4.45143
4.41888
4.38526
4.35061
4.31497
4.27838
4.24087
4.2025
4.1633
4.12333
4.08264
4.04128
3.99932
3.95681
3.91382
3.87042
3.8267
3.78271
3.73854
3.69423
3.64986
3.60548
3.56114
3.5169
3.47281
3.42898
3.38543
3.34236
3.29966
3.25795
3.21617
3.17432
0.00377229
0.0409435
0.0737092
0.0915063
0.102744
0.110572
0.116334
0.120736
0.124219
0.127126
0.129699
0.132144
0.134649
0.137379
0.140474
0.144053
0.148213
0.153025
0.158535
0.164764
0.171717
0.179393
0.187778
0.196866
0.206662
0.217184
0.228466
0.240533
0.253462
0.267326
0.282148
0.29797
0.314828
0.332758
0.351792
0.37196
0.393288
0.415805
0.439545
0.464551
0.49087
0.518558
0.547681
0.578304
0.610482
0.64426
0.679684
0.716812
0.755718
0.79647
0.839132
0.88376
0.930406
0.979121
1.02995
1.08293
1.13807
1.19538
1.25486
1.31649
1.38023
1.44604
1.51384
1.58356
1.65508
1.72829
1.80306
1.87924
1.95668
2.03523
2.11471
2.19496
2.27579
2.35705
2.43856
2.52016
2.60173
2.68313
2.76426
2.84502
2.92528
3.00496
3.08395
3.16217
3.23953
3.31592
3.39126
3.46549
3.53855
3.61036
3.68088
3.75005
3.8178
3.8841
3.94889
4.01211
4.07371
4.13365
4.19186
4.24831
4.30294
4.35572
4.40661
4.45556
4.50255
4.54754
4.5905
4.6314
4.67022
4.70695
4.74156
4.77404
4.80438
4.83257
4.8586
4.88246
4.90417
4.92372
4.94111
4.95636
4.96947
4.98046
4.98935
4.99614
5.00086
5.00353
5.00416
5.0028
4.99946
4.99417
4.98696
4.97786
4.96691
4.95416
4.93963
4.92338
4.90544
4.88587
4.8647
4.84198
4.81777
4.79211
4.76504
4.73663
4.70691
4.67592
4.64373
4.61036
4.57586
4.54028
4.50365
4.466
4.42739
4.38785
4.34741
4.30613
4.26403
4.22117
4.17759
4.13335
4.08851
4.04314
3.9973
3.95108
3.90456
3.85782
3.81096
3.76403
3.71712
3.6703
3.62362
3.57715
3.53096
3.48513
3.43969
3.39484
3.35039
3.30714
3.26354
3.22126
0.00387954
0.0438783
0.0776232
0.0958193
0.107291
0.115278
0.121166
0.125681
0.129276
0.132293
0.134983
0.137553
0.14019
0.143057
0.146293
0.150014
0.154316
0.159267
0.164917
0.171292
0.178412
0.186281
0.1949
0.20427
0.214401
0.225317
0.237053
0.249649
0.263149
0.27759
0.293055
0.309612
0.327296
0.346153
0.366217
0.387505
0.41004
0.433867
0.459046
0.485646
0.513746
0.543425
0.57476
0.607828
0.642701
0.679451
0.718153
0.758884
0.801712
0.84669
0.893861
0.943259
0.994915
1.04885
1.10509
1.16362
1.22445
1.28754
1.35285
1.42034
1.48994
1.56156
1.63509
1.71043
1.78743
1.86597
1.9459
2.02707
2.10931
2.19245
2.27633
2.36076
2.44557
2.53056
2.6156
2.70054
2.78529
2.86972
2.95376
3.03729
3.12022
3.20244
3.28386
3.36435
3.4438
3.52209
3.59916
3.67492
3.74933
3.82232
3.89384
3.96384
4.03226
4.09905
4.16416
4.22753
4.28912
4.34888
4.40675
4.4627
4.51668
4.56866
4.6186
4.66647
4.71223
4.75587
4.79735
4.83665
4.87377
4.90867
4.94135
4.97181
5.00003
5.02601
5.04975
5.07125
5.09053
5.10757
5.1224
5.13502
5.14546
5.15372
5.15984
5.16381
5.16567
5.16543
5.16313
5.15879
5.15244
5.14411
5.13384
5.12165
5.1076
5.09173
5.07407
5.05468
5.03358
5.01085
4.98651
4.96063
4.93326
4.90445
4.87425
4.84272
4.8099
4.77584
4.74061
4.70423
4.66676
4.62824
4.58871
4.54821
4.50678
4.46446
4.42127
4.37726
4.33247
4.28694
4.24072
4.19385
4.1464
4.09843
4.05002
4.00124
3.9522
3.90298
3.85368
3.80439
3.7552
3.7062
3.65745
3.60903
3.561
3.51347
3.46642
3.42012
3.3742
3.32981
3.28464
3.24242
0.00449213
0.0465952
0.0808999
0.0992687
0.110826
0.118868
0.124807
0.129385
0.133051