/*--------------------------------*- C++ -*----------------------------------*\
| =========                 |                                                 |
| \\      /  F ield         | OpenFOAM: The Open Source CFD Toolbox           |
|  \\    /   O peration     | Version:  2312                                  |
|   \\  /    A nd           | Website:  www.openfoam.com                      |
|    \\/     M anipulation  |                                                 |
\*---------------------------------------------------------------------------*/
FoamFile
{
    version     2.0;
    format      ascii;
    arch        "LSB;label=32;scalar=64";
    class       volScalarField;
    location    "0.2";
    object      nut;
}
// * * * * * * * * * * * * * * * * * * * * * * * * * * * * * * * * * * * * * //

dimensions      [0 2 -1 0 0 0 0];

internalField   nonuniform List<scalar> 
12225
(
5.92706e-06
1.70213e-05
0.000104266
0.000103102
8.91731e-05
7.12385e-05
6.07735e-05
5.53089e-05
5.27791e-05
5.1747e-05
5.12292e-05
5.0952e-05
5.06545e-05
5.03919e-05
5.02949e-05
4.99941e-05
5.05153e-05
4.97061e-05
0.000126592
5.21442e-05
5.83642e-05
8.0723e-05
9.06809e-05
9.72555e-05
0.000103527
0.000104657
0.00010535
0.000106541
0.000107754
0.000109204
0.000110232
0.000111363
0.000112084
0.000112899
0.00011436
0.000113547
0.000305096
0.000246411
7.8895e-05
5.67614e-05
6.16032e-05
6.39741e-05
7.18398e-05
7.89951e-05
8.59969e-05
9.36361e-05
0.00010143
0.000108854
0.000113633
0.000117162
0.00012067
0.000124104
0.000127555
0.000132547
0.000534362
0.000478351
0.000281257
0.000126357
8.83713e-05
7.54961e-05
6.97139e-05
6.76207e-05
6.65429e-05
6.83247e-05
7.04319e-05
7.45373e-05
7.74975e-05
8.16261e-05
8.41146e-05
8.8271e-05
9.07058e-05
9.54479e-05
0.000504834
0.000406857
0.000391691
0.000434188
0.000260227
0.000189231
0.000154667
0.000131734
0.000117638
0.000106406
0.000100047
9.464e-05
9.18127e-05
8.93182e-05
8.83244e-05
8.73441e-05
8.71917e-05
8.68418e-05
0.000383991
0.000395266
0.000438413
0.000538191
0.000598338
0.000470499
0.000394895
0.000334822
0.000297075
0.000263588
0.000242668
0.000222827
0.00021067
0.000197055
0.000189722
0.000180294
0.000175685
0.000167539
0.000491786
0.000497911
0.000601395
0.000562339
0.000643823
0.000733317
0.000671735
0.000605256
0.000558773
0.000512281
0.000480109
0.000447457
0.000425017
0.000399242
0.000383999
0.000366932
0.000358731
0.000344299
0.000852367
0.000853023
0.000853705
0.000561315
0.000563184
0.000743382
0.000810329
0.000774622
0.000746064
0.000712743
0.000687131
0.000658479
0.000635856
0.000609716
0.000591928
0.000574183
0.000565895
0.000551938
0.00085262
0.00085314
0.000706323
0.000530442
0.000528142
0.000642736
0.00084887
0.000837919
0.000827305
0.000812021
0.00079934
0.000784093
0.000770504
0.000753452
0.000740176
0.000726905
0.000720515
0.000710018
0.000852461
0.000852651
0.000812103
0.000612533
0.000587218
0.000631925
0.000761563
0.000854484
0.000851906
0.000846458
0.000840617
0.000835329
0.000830185
0.000823283
0.000816444
0.000809589
0.00080579
0.000800118
0.000851418
0.000851657
0.000852053
0.000854334
0.000776756
0.000737515
0.000777627
0.000857132
0.000856571
0.000854841
0.000852615
0.000850843
0.000848766
0.000846802
0.000845024
0.000842997
0.000841308
0.000838676
0.000337373
0.000723017
0.000852243
0.000853215
0.000854088
0.000855463
0.000856771
0.000856893
0.000856706
0.000855707
0.000854292
0.000853491
0.000852932
0.000852412
0.000852042
0.000851629
0.000850982
0.000849785
0.000714579
0.000850746
0.000850869
0.000851393
0.000852753
0.000854087
0.000855196
0.000855717
0.000855994
0.000854973
0.000853771
0.000853345
0.000853257
0.000853167
0.000853185
0.000853129
0.000853072
0.000852336
0.000741055
0.000852697
0.000852025
0.000851439
0.000851843
0.000852579
0.000853275
0.000853737
0.000853849
0.000853238
0.000852701
0.000852482
0.0008525
0.000852563
0.000852577
0.000852505
0.000852337
0.000851546
0.00047546
0.000852494
0.000852328
0.000851499
0.000851308
0.000851268
0.000851228
0.000851183
0.000850996
0.000850609
0.000850607
0.000850701
0.000850901
0.000851088
0.000851413
0.000851669
0.000851253
0.000850336
0.000851986
0.000851928
0.000851495
0.000850987
0.000850157
0.000849403
0.000849952
0.000849955
0.000849469
0.000848822
0.000848548
0.000848724
0.000849357
0.000850126
0.000850701
0.000850837
0.000850491
0.000849792
0.000733135
0.000852931
0.000853708
0.000800141
0.000854521
0.000854853
0.000853132
0.000851169
0.000849478
0.000848365
0.00084807
0.000848517
0.000849411
0.000850597
0.000851661
0.00085164
0.000851068
0.000850335
0.000526512
0.000852885
0.000853545
0.000853851
0.000853761
0.00085269
0.000851396
0.000850264
0.000849399
0.000849077
0.000849324
0.000849879
0.000850296
0.000850605
0.000850741
0.000850865
0.000850962
0.000851063
0.000851954
0.000852012
0.000852271
0.000851711
0.000851702
0.000852098
0.000852652
0.000852757
0.000850845
0.000849603
0.00084892
0.000848473
0.00084811
0.00084781
0.000847639
0.000847649
0.000847751
0.000847854
0.000852204
0.000852551
0.000851882
0.00085099
0.000851662
0.000852612
0.000852899
0.000852727
0.000852576
0.000852621
0.00085254
0.000851856
0.000850461
0.000848748
0.0008472
0.000846224
0.000845814
0.000845886
0.000852284
0.000852882
0.000852267
0.000850462
0.000849614
0.000850777
0.000851807
0.000852629
0.000854348
0.000854852
0.000855271
0.000856448
0.000855953
0.000853646
0.000851189
0.000849063
0.000847492
0.000846509
0.000740558
0.000852724
0.0008521
0.000851271
0.000850526
0.00085089
0.000851347
0.000852421
0.00085557
0.000857546
0.000858011
0.000858245
0.000858811
0.000857717
0.000855111
0.000852681
0.000850461
0.000848563
0.000726925
0.000851159
0.000850783
0.000850803
0.000850922
0.000850837
0.000851244
0.000851905
0.000854305
0.000854681
0.000853387
0.000852659
0.000851684
0.000850172
0.000847216
0.000842789
0.000837656
0.000833247
0.0007572
0.000852838
0.000853492
0.000853741
0.000853749
0.0008508
0.00084953
0.00083053
0.000792391
0.000832113
0.000814617
0.000803384
0.0007931
0.000785515
0.000773495
0.000762749
0.000747476
0.000735309
0.000642132
0.000852606
0.000851859
0.000817585
0.000635578
0.000610772
0.00063257
0.000652287
0.000679393
0.000670894
0.000616215
0.000585744
0.000559301
0.000542193
0.000519128
0.00050079
0.000476637
0.000458673
0.000817957
0.000849464
0.000837468
0.000815742
0.000597788
0.000484048
0.000491947
0.000467804
0.000368544
0.000309654
0.000269808
0.000249776
0.000234042
0.000224113
0.000212099
0.000202639
0.000190922
0.000182234
0.000849728
0.000807544
0.000727915
0.000605434
0.000440714
0.000272077
0.000176572
0.000137471
0.000117577
0.000106721
0.000100356
9.66322e-05
9.4526e-05
9.35058e-05
9.32293e-05
9.35807e-05
9.45208e-05
9.56239e-05
0.000765056
0.000505887
0.000337232
0.000199971
0.000114
7.62798e-05
7.7401e-05
8.0426e-05
8.24372e-05
8.73686e-05
9.27265e-05
9.71014e-05
0.000101985
0.000107058
0.000113205
0.000119539
0.000126429
0.000133003
0.000265263
9.32546e-05
6.23414e-05
5.78927e-05
7.44587e-05
9.16997e-05
0.000115308
0.000121061
0.000128111
0.000134503
0.000138002
0.000139396
0.000141279
0.000143354
0.000145266
0.000147128
0.000148758
0.000150289
6.57927e-06
1.39613e-05
2.5081e-05
4.76524e-05
0.000137971
0.000143878
0.000134347
0.000113916
9.80519e-05
8.78381e-05
8.21216e-05
7.91236e-05
7.75712e-05
7.6752e-05
7.61837e-05
7.57576e-05
7.52954e-05
7.49134e-05
5.29071e-11
1.80596e-09
6.32017e-09
2.40922e-08
7.24402e-08
1.60452e-07
2.77662e-07
4.12171e-07
5.53246e-07
6.92475e-07
8.24219e-07
9.44274e-07
1.05046e-06
1.14205e-06
1.2183e-06
1.27967e-06
1.32705e-06
1.36141e-06
1.38372e-06
1.39692e-06
1.3996e-06
1.3972e-06
1.39351e-06
1.38801e-06
1.3862e-06
1.38817e-06
1.39741e-06
1.41932e-06
1.45873e-06
1.51955e-06
1.60511e-06
1.71804e-06
1.85982e-06
2.03003e-06
2.22603e-06
2.44425e-06
2.67997e-06
2.92858e-06
3.18651e-06
3.45197e-06
3.72482e-06
4.00757e-06
4.30329e-06
4.61723e-06
4.95256e-06
5.3062e-06
5.65606e-06
5.95601e-06
6.14988e-06
6.165e-06
6.12749e-06
6.10467e-06
6.12318e-06
6.20599e-06
6.35619e-06
6.56369e-06
7.02804e-06
8.4257e-06
1.18799e-05
1.66557e-05
2.19024e-05
2.72198e-05
3.24239e-05
3.74186e-05
4.21656e-05
4.66539e-05
5.08874e-05
5.48779e-05
5.86404e-05
6.21904e-05
6.5543e-05
6.87115e-05
7.17084e-05
7.45441e-05
7.72261e-05
7.97666e-05
8.21758e-05
8.44631e-05
8.66369e-05
8.8705e-05
9.06744e-05
9.25514e-05
9.43416e-05
9.605e-05
9.76807e-05
9.92374e-05
0.000100724
0.000102142
0.000103495
0.000104783
0.000106009
0.000107172
0.000108273
0.000109314
0.000110294
0.000111214
0.000112074
0.000112875
0.000113617
0.0001143
0.000114926
0.000115494
0.000116004
0.000116458
0.000116857
0.000117199
0.000117484
0.000117711
0.00011788
0.000117989
0.00011804
0.000118016
0.000117928
0.000117799
0.00011759
0.000117315
0.000116971
0.000116557
0.000116069
0.000115507
0.000114871
0.00011416
0.000113373
0.000112513
0.000111581
0.000110579
0.000109511
0.000108383
0.000107196
0.000105959
0.000104676
0.000103354
0.000102
0.000100621
9.92228e-05
9.78112e-05
9.63915e-05
9.4969e-05
9.35482e-05
9.21323e-05
9.0724e-05
8.9325e-05
8.79362e-05
8.65576e-05
8.51888e-05
8.38284e-05
8.24751e-05
8.1127e-05
7.97822e-05
7.84388e-05
7.70951e-05
7.57499e-05
7.44022e-05
7.30516e-05
7.16984e-05
7.03435e-05
6.89883e-05
6.76348e-05
6.62855e-05
6.49432e-05
6.36108e-05
6.22915e-05
6.09882e-05
5.97037e-05
5.844e-05
5.71989e-05
5.59817e-05
5.47883e-05
5.36178e-05
5.247e-05
5.1375e-05
5.06842e-05
5.07952e-05
5.11348e-05
5.14615e-05
5.17479e-05
5.20044e-05
5.20637e-05
5.22186e-05
4.99273e-05
2.73962e-10
1.15754e-08
1.71473e-07
8.20821e-07
2.48887e-06
5.39894e-06
9.22072e-06
1.34932e-05
1.77271e-05
2.1543e-05
2.47305e-05
2.71565e-05
2.88907e-05
3.00321e-05
3.05869e-05
3.07436e-05
3.05917e-05
3.02192e-05
2.97108e-05
2.91353e-05
2.85746e-05
2.80927e-05
2.7699e-05
2.74269e-05
2.73884e-05
2.76867e-05
2.83954e-05
2.95487e-05
3.11401e-05
3.31241e-05
3.54581e-05
3.80811e-05
4.09001e-05
4.38037e-05
4.66811e-05
4.94421e-05
5.20181e-05
5.43732e-05
5.65061e-05
5.84422e-05
6.02271e-05
6.19106e-05
6.35209e-05
6.5049e-05
6.64013e-05
6.73027e-05
6.72981e-05
6.55898e-05
6.17269e-05
5.68998e-05
5.29373e-05
5.10353e-05
5.11981e-05
5.30889e-05
5.67511e-05
6.24816e-05
7.04166e-05
8.04503e-05
9.14933e-05
0.000102217
0.000112672
0.000122837
0.000132732
0.000142359
0.00015173
0.00016086
0.000169754
0.00017842
0.000186868
0.000195108
0.000203156
0.000211028
0.000218762
0.000226396
0.00023376
0.000240891
0.000247804
0.000254506
0.00026101
0.000267328
0.00027347
0.000279449
0.000285275
0.000290958
0.000296505
0.000301914
0.000307215
0.00031243
0.000317558
0.000322606
0.000327578
0.000332479
0.000337311
0.000342076
0.000346776
0.000351411
0.000355982
0.000360487
0.000364928
0.000369303
0.000373611
0.00037785
0.000382026
0.000386154
0.000390265
0.000394329
0.000398311
0.000402228
0.000406093
0.000409893
0.000413545
0.000416953
0.000420197
0.000423408
0.000426586
0.000429729
0.00043283
0.0004359
0.000438929
0.000441912
0.000444842
0.000447708
0.000450501
0.000453209
0.000455821
0.000458328
0.000460689
0.000462963
0.000465077
0.000467045
0.000468851
0.000470512
0.000472053
0.000473442
0.000474689
0.000475811
0.000476819
0.000477729
0.000478555
0.000479314
0.000480022
0.000480693
0.00048134
0.000481972
0.000482598
0.000483222
0.000483844
0.00048446
0.000485067
0.000485654
0.000486213
0.000486729
0.000487191
0.000487585
0.000487899
0.000488122
0.000488245
0.000488265
0.000488176
0.000487982
0.000487687
0.000487297
0.000486823
0.000486276
0.00048567
0.000485015
0.000484322
0.000483593
0.000482822
0.000481988
0.000480976
0.000478868
0.000475091
0.000470241
0.000465025
0.000459562
0.000453368
0.000447719
0.000438735
0.00042032
3.53706e-10
3.26663e-08
4.71174e-07
2.45572e-06
8.03086e-06
1.74034e-05
2.966e-05
4.34761e-05
5.7501e-05
7.06956e-05
8.23622e-05
9.20416e-05
9.96209e-05
0.00010518
0.000108793
0.000111315
0.000112562
0.000112832
0.000112537
0.000111942
0.000111291
0.0001108
0.000110608
0.000110848
0.00011168
0.000113233
0.000115548
0.000118558
0.000122091
0.000125915
0.000129792
0.0001335
0.000136839
0.000139645
0.0001418
0.000143219
0.000143845
0.000143684
0.000142838
0.000141453
0.000139704
0.00013776
0.000135727
0.000133623
0.000131487
0.000129373
0.000127195
0.0001256
0.000124335
0.000125025
0.000128944
0.00013481
0.000143064
0.000153679
0.000166834
0.000182303
0.000199673
0.000218858
0.000238741
0.000258987
0.000279399
0.000299843
0.000320221
0.000340452
0.000360447
0.000380168
0.000399658
0.000418893
0.000437719
0.00045621
0.000474336
0.000492071
0.000509375
0.000526199
0.000542752
0.000559026
0.000575016
0.000590723
0.000606152
0.000621307
0.000636199
0.000650839
0.00066524
0.000679418
0.000693391
0.000707188
0.000720794
0.000734204
0.000747431
0.000760485
0.000773375
0.000786106
0.000798684
0.00081111
0.000823386
0.000835513
0.000847488
0.00085931
0.000870977
0.000882484
0.00089383
0.000905008
0.000915999
0.000926764
0.000937228
0.000947489
0.000957608
0.000967594
0.000977445
0.000987136
0.00099662
0.00100587
0.0010149
0.00102385
0.00103267
0.00104137
0.00104994
0.00105836
0.00106661
0.00107467
0.00108249
0.00109006
0.00109733
0.00110427
0.00111083
0.00111699
0.00112271
0.00112797
0.00113274
0.001137
0.00114072
0.0011439
0.00114669
0.00114901
0.00115084
0.00115227
0.00115334
0.0011541
0.00115459
0.00115486
0.00115497
0.00115497
0.00115487
0.00115472
0.00115454
0.00115433
0.0011541
0.00115382
0.00115349
0.00115308
0.00115254
0.00115185
0.00115097
0.00114985
0.00114846
0.00114678
0.00114478
0.00114246
0.00113981
0.00113686
0.00113363
0.00113014
0.00112646
0.00112262
0.00111867
0.00111468
0.00111067
0.00110667
0.00110268
0.00109868
0.00109448
0.00108909
0.00108179
0.00107283
0.00106297
0.00105232
0.00104043
0.00102805
0.00101084
0.000973202
1.4632e-09
9.43208e-08
1.32932e-06
6.99332e-06
1.97011e-05
3.79059e-05
5.93846e-05
8.19767e-05
0.000103914
0.000123841
0.000141012
0.000155341
0.000166912
0.000175857
0.000182422
0.000187291
0.000190621
0.000192456
0.000193382
0.000193722
0.000193757
0.000193707
0.000193764
0.00019411
0.000194866
0.000196068
0.000197656
0.000199483
0.000201333
0.000202967
0.000204191
0.000204898
0.000205127
0.000204891
0.00020405
0.000202553
0.000200341
0.000197413
0.000194129
0.00019079
0.000187702
0.000185229
0.000183684
0.000182808
0.000182651
0.000183403
0.000186745
0.00019396
0.000204307
0.000217209
0.000232
0.000249203
0.000268964
0.000291328
0.000316017
0.000342904
0.000371749
0.00040226
0.000433795
0.000466051
0.000498697
0.000531509
0.000564302
0.000596947
0.000629342
0.000661273
0.000692838
0.000724125
0.000754773
0.000784918
0.000814518
0.000843562
0.000872041
0.000899961
0.000927358
0.000954234
0.000980591
0.00100643
0.00103177
0.00105662
0.001081
0.00110492
0.0011284
0.00115147
0.00117414
0.00119644
0.00121837
0.00123995
0.00126119
0.00128211
0.0013027
0.00132299
0.00134296
0.00136263
0.001382
0.00140106
0.00141981
0.00143825
0.00145637
0.00147416
0.0014916
0.00150867
0.00152536
0.00154167
0.00155761
0.00157319
0.00158846
0.00160344
0.00161812
0.00163249
0.00164655
0.00166029
0.00167374
0.00168692
0.00169985
0.0017125
0.00172487
0.00173691
0.0017486
0.0017599
0.00177077
0.00178116
0.00179101
0.00180029
0.00180892
0.00181687
0.00182408
0.00183051
0.00183615
0.00184095
0.00184491
0.00184798
0.00185042
0.00185209
0.001853
0.00185326
0.00185295
0.00185214
0.00185092
0.00184937
0.00184756
0.00184558
0.00184347
0.00184129
0.00183908
0.00183685
0.0018346
0.00183233
0.00183
0.00182757
0.00182498
0.00182217
0.00181909
0.00181565
0.00181181
0.00180751
0.00180272
0.00179741
0.00179159
0.00178527
0.0017785
0.00177133
0.00176384
0.00175611
0.00174826
0.00174036
0.00173249
0.00172473
0.0017171
0.00170957
0.001702
0.00169365
0.00168383
0.00167247
0.00166004
0.00164641
0.00163131
0.0016148
0.00159243
0.0015466
8.25578e-09
2.67156e-07
3.58334e-06
1.73899e-05
4.13466e-05
7.06037e-05
0.000100847
0.000129472
0.000155221
0.000177629
0.000196522
0.000212081
0.000224615
0.000234524
0.000242048
0.000247819
0.000251629
0.000253951
0.000255173
0.000255579
0.000255455
0.000255074
0.000254687
0.000254443
0.000254387
0.000254499
0.000254687
0.000254803
0.000254637
0.000253979
0.000252749
0.000250882
0.000248337
0.00024521
0.000241783
0.000238329
0.000235195
0.000232745
0.000231174
0.00023078
0.000231261
0.000232572
0.000234654
0.000239568
0.000248996
0.000262125
0.000278163
0.00029659
0.000317753
0.000341622
0.00036798
0.000396985
0.000428491
0.000462358
0.000498364
0.000536358
0.000576095
0.000617261
0.000659446
0.000702333
0.000745621
0.000789052
0.000832354
0.000875412
0.000918311
0.000960709
0.00100258
0.0010439
0.00108456
0.00112456
0.00116389
0.0012025
0.0012404
0.00127758
0.00131404
0.00134977
0.00138479
0.00141909
0.00145269
0.0014856
0.00151784
0.00154943
0.0015804
0.00161076
0.00164055
0.00166978
0.00169847
0.00172665
0.00175433
0.00178151
0.00180822
0.00183446
0.00186022
0.00188552
0.00191036
0.00193472
0.00195861
0.00198202
0.00200495
0.00202737
0.00204925
0.00207061
0.00209144
0.00211174
0.00213152
0.0021508
0.00216959
0.00218792
0.0022058
0.00222323
0.00224022
0.00225679
0.00227296
0.00228873
0.00230412
0.0023191
0.00233368
0.00234781
0.00236146
0.0023746
0.00238718
0.00239915
0.00241044
0.00242102
0.00243079
0.0024397
0.00244771
0.00245474
0.00246077
0.00246578
0.00246969
0.00247251
0.00247455
0.00247553
0.00247556
0.00247474
0.00247316
0.00247093
0.00246813
0.00246489
0.0024613
0.00245746
0.00245346
0.00244936
0.00244522
0.00244108
0.00243696
0.00243285
0.00242871
0.00242451
0.00242018
0.00241565
0.00241082
0.00240561
0.00239992
0.00239369
0.00238684
0.00237932
0.00237113
0.00236226
0.00235274
0.00234265
0.00233209
0.00232116
0.00231001
0.00229877
0.00228757
0.00227652
0.0022657
0.00225511
0.00224466
0.0022339
0.00222228
0.00220958
0.0021959
0.00218104
0.00216473
0.00214664
0.00212254
0.00207704
2.78281e-08
6.97236e-07
8.95668e-06
3.38259e-05
6.89507e-05
0.000106851
0.000143094
0.000175514
0.000203402
0.000226814
0.000246243
0.000261917
0.000274122
0.000283249
0.000289962
0.000294472
0.000297283
0.000298792
0.000299343
0.000299227
0.000298651
0.000297758
0.000296634
0.00029535
0.00029395
0.000292427
0.000290745
0.000288855
0.000286733
0.000284389
0.000281801
0.000279057
0.000276339
0.000273917
0.00027211
0.000271253
0.000271674
0.000273135
0.000275517
0.000278686
0.00028447
0.000294228
0.000308316
0.000325728
0.000345977
0.00036904
0.00039525
0.000424207
0.000455975
0.000490365
0.000527254
0.000566563
0.000608098
0.000651677
0.000697099
0.000744177
0.000792674
0.000842301
0.000892775
0.000943669
0.000994982
0.00104645
0.00109771
0.00114874
0.00119942
0.00124957
0.00129915
0.00134808
0.0013963
0.00144377
0.00149046
0.00153633
0.00158137
0.00162555
0.00166886
0.00171129
0.00175284
0.00179352
0.00183333
0.00187227
0.00191038
0.00194767
0.00198416
0.00201989
0.00205489
0.00208916
0.00212276
0.00215568
0.00218796
0.0022196
0.00225062
0.00228103
0.00231083
0.00234002
0.0023686
0.00239656
0.00242391
0.00245063
0.00247672
0.00250213
0.00252688
0.00255097
0.00257439
0.00259714
0.00261925
0.00264071
0.00266155
0.00268179
0.00270144
0.00272052
0.00273906
0.00275708
0.00277459
0.00279161
0.00280816
0.00282424
0.00283982
0.00285491
0.00286947
0.00288347
0.00289688
0.00290963
0.00292167
0.00293295
0.00294339
0.00295291
0.00296152
0.00296904
0.00297546
0.00298077
0.00298484
0.00298776
0.00298972
0.00299045
0.00299009
0.00298872
0.00298642
0.00298331
0.00297949
0.0029751
0.00297024
0.00296505
0.00295963
0.00295406
0.00294843
0.0029428
0.00293722
0.00293169
0.00292621
0.00292073
0.00291521
0.00290955
0.00290367
0.00289745
0.00289078
0.00288355
0.00287565
0.00286701
0.00285756
0.00284728
0.00283618
0.0028243
0.00281174
0.00279864
0.00278514
0.00277142
0.00275767
0.00274406
0.00273071
0.00271771
0.00270505
0.00269249
0.00267964
0.00266625
0.00265224
0.00263736
0.00262128
0.00260317
0.00258007
0.00253944
6.19339e-08
1.58967e-06
1.75046e-05
5.38535e-05
9.86747e-05
0.000143197
0.00018348
0.000218157
0.000247314
0.000271056
0.000289665
0.000303802
0.000314174
0.000321447
0.000326226
0.000329037
0.000330348
0.000330551
0.00032996
0.000328821
0.000327311
0.000325554
0.00032363
0.000321595
0.000319482
0.000317316
0.000315119
0.00031293
0.000310824
0.00030892
0.000307382
0.000306426
0.000306305
0.000307302
0.000309401
0.00031246
0.000316301
0.000322311
0.000331533
0.000345002
0.000361942
0.000382202
0.000405557
0.000431886
0.000461473
0.000494017
0.00052945
0.000567546
0.00060821
0.000651258
0.000696547
0.000743915
0.000793176
0.000844141
0.00089655
0.000950214
0.00100514
0.00106083
0.00111714
0.00117383
0.00123075
0.00128766
0.0013444
0.00140085
0.00145688
0.00151239
0.00156728
0.00162149
0.00167495
0.00172761
0.00177943
0.00183036
0.00188037
0.00192944
0.00197753
0.00202463
0.00207073
0.00211583
0.00215992
0.00220301
0.00224512
0.00228627
0.00232648
0.00236579
0.00240423
0.00244183
0.00247861
0.00251461
0.00254983
0.00258432
0.00261806
0.00265109
0.00268339
0.00271498
0.00274583
0.00277596
0.00280533
0.00283393
0.00286175
0.00288879
0.00291506
0.00294056
0.00296528
0.00298924
0.00301244
0.00303489
0.00305662
0.00307766
0.00309803
0.00311774
0.00313682
0.0031553
0.0031732
0.00319056
0.00320738
0.00322369
0.00323949
0.00325479
0.00326956
0.0032838
0.00329747
0.00331054
0.00332294
0.00333463
0.00334554
0.00335558
0.00336473
0.00337287
0.00337984
0.00338572
0.0033903
0.00339371
0.00339601
0.003397
0.00339675
0.00339534
0.00339285
0.00338938
0.00338505
0.00337998
0.00337431
0.00336817
0.00336172
0.00335509
0.00334841
0.00334171
0.00333507
0.00332852
0.00332207
0.00331573
0.00330945
0.00330316
0.00329678
0.00329018
0.00328324
0.00327582
0.00326778
0.00325899
0.00324935
0.00323877
0.00322722
0.00321469
0.00320127
0.00318705
0.00317221
0.00315694
0.00314147
0.00312602
0.00311079
0.00309596
0.0030816
0.00306764
0.00305389
0.00304013
0.00302623
0.00301195
0.00299698
0.00298055
0.0029597
0.00292571
1.04037e-07
3.16965e-06
2.83944e-05
7.53683e-05
0.000127879
0.000177392
0.000220721
0.000257154
0.000286392
0.000308974
0.000325719
0.00033777
0.00034598
0.000351119
0.000353919
0.000354991
0.000354831
0.00035383
0.000352283
0.000350409
0.000348362
0.00034625
0.000344152
0.000342135
0.00034027
0.000338637
0.000337334
0.000336485
0.000336235
0.000336743
0.000338203
0.00034075
0.00034423
0.000348539
0.000354376
0.000362808
0.000375026
0.000390456
0.000409061
0.000430811
0.000456034
0.000484476
0.000515969
0.000550488
0.000587997
0.000628233
0.000671042
0.000716246
0.000763658
0.00081311
0.000864546
0.000917676
0.000972342
0.00102836
0.00108554
0.00114372
0.00120272
0.00126231
0.00132231
0.00138255
0.00144287
0.0015031
0.00156312
0.00162281
0.00168206
0.00174077
0.00179887
0.00185629
0.00191295
0.0019688
0.00202378
0.00207786
0.00213098
0.00218311
0.0022342
0.00228424
0.0023332
0.00238105
0.00242781
0.00247346
0.00251801
0.00256148
0.00260391
0.00264533
0.00268577
0.00272527
0.00276387
0.00280158
0.00283844
0.00287448
0.0029097
0.00294413
0.00297776
0.0030106
0.00304265
0.00307388
0.00310427
0.00313382
0.00316254
0.00319043
0.00321748
0.00324368
0.00326904
0.00329354
0.0033172
0.00334003
0.00336205
0.00338327
0.00340371
0.00342341
0.0034424
0.00346072
0.00347841
0.0034955
0.00351202
0.00352801
0.0035435
0.0035585
0.00357304
0.0035871
0.00360067
0.00361375
0.00362628
0.00363823
0.00364952
0.00366009
0.00366989
0.00367879
0.00368663
0.00369345
0.00369903
0.00370345
0.00370671
0.00370861
0.00370918
0.00370845
0.00370649
0.00370338
0.00369921
0.00369411
0.00368823
0.0036817
0.00367469
0.00366733
0.00365976
0.00365211
0.00364449
0.00363697
0.00362963
0.00362248
0.00361553
0.00360874
0.00360205
0.00359534
0.00358848
0.00358131
0.00357367
0.00356538
0.00355627
0.00354618
0.00353502
0.00352273
0.00350929
0.00349479
0.00347937
0.00346322
0.00344659
0.00342977
0.00341303
0.00339661
0.00338072
0.00336544
0.00335072
0.00333655
0.00332285
0.00330934
0.00329575
0.0032814
0.00326398
0.00323644
1.45969e-07
5.52618e-06
3.99851e-05
9.57568e-05
0.000154846
0.000208828
0.000254741
0.000291675
0.000320139
0.000340989
0.000355719
0.000365708
0.000371798
0.000374983
0.000376087
0.00037577
0.000374545
0.000372795
0.000370803
0.000368781
0.000366874
0.000365185
0.000363809
0.000362846
0.000362401
0.000362583
0.000363502
0.000365282
0.000368087
0.000371825
0.000376411
0.000381977
0.000389574
0.00040018
0.0004138
0.000430355
0.000449692
0.000472266
0.000498098
0.000527172
0.000559448
0.000594743
0.000632914
0.000673846
0.000717372
0.000763294
0.00081144
0.00086164
0.000913724
0.000967533
0.00102291
0.00107966
0.00113761
0.0011966
0.00125645
0.001317
0.0013781
0.00143958
0.00150128
0.00156308
0.00162484
0.00168642
0.00174775
0.00180873
0.00186928
0.00192932
0.00198879
0.00204762
0.00210575
0.00216308
0.00221958
0.00227521
0.00232992
0.00238364
0.00243633
0.00248794
0.00253843
0.00258778
0.00263595
0.00268295
0.0027288
0.00277357
0.00281719
0.00285969
0.00290113
0.00294154
0.00298096
0.00301942
0.00305697
0.00309363
0.00312942
0.00316435
0.00319845
0.00323171
0.00326414
0.00329573
0.0033265
0.00335642
0.00338548
0.00341366
0.00344094
0.00346733
0.0034928
0.00351735
0.00354099
0.00356371
0.00358553
0.00360647
0.00362655
0.00364581
0.00366429
0.00368203
0.00369908
0.00371547
0.00373128
0.00374653
0.00376129
0.00377559
0.00378947
0.00380295
0.00381606
0.0038288
0.00384115
0.00385308
0.00386455
0.0038755
0.00388591
0.00389556
0.00390438
0.00391232
0.00391921
0.00392499
0.00392967
0.00393301
0.00393498
0.00393558
0.00393482
0.00393274
0.00392943
0.00392497
0.00391951
0.00391318
0.00390614
0.00389856
0.0038906
0.00388242
0.00387416
0.00386595
0.00385791
0.00385012
0.00384264
0.00383547
0.00382861
0.00382197
0.00381544
0.00380887
0.00380208
0.00379484
0.00378695
0.00377819
0.00376835
0.00375728
0.00374491
0.00373121
0.00371627
0.00370024
0.00368338
0.00366598
0.00364838
0.00363091
0.00361386
0.00359748
0.0035819
0.00356715
0.00355326
0.00354011
0.0035275
0.00351489
0.00350036
0.0034789
1.80692e-07
8.1724e-06
5.0461e-05
0.000114165
0.00017947
0.000237436
0.000284998
0.000322039
0.000349334
0.000368362
0.000381457
0.00038954
0.000393867
0.000395551
0.000395481
0.000394344
0.00039265
0.000390772
0.000389014
0.000387617
0.000386718
0.000386401
0.000386722
0.000387765
0.000389617
0.000392386
0.000396141
0.000400763
0.000406142
0.000412978
0.000422021
0.000433808
0.000448131
0.000464932
0.000484565
0.000507186
0.00053284
0.000561634
0.000593528
0.000628431
0.000666205
0.000706677
0.000749691
0.00079509
0.000842697
0.000892334
0.000943832
0.000997026
0.00105175
0.00110784
0.00116514
0.00122347
0.00128266
0.00134255
0.001403
0.00146389
0.00152509
0.00158649
0.00164798
0.00170945
0.00177079
0.00183182
0.0018926
0.00195307
0.00201319
0.0020729
0.00213215
0.00219092
0.0022492
0.00230709
0.00236435
0.00242078
0.00247629
0.00253082
0.0025843
0.00263669
0.00268791
0.00273792
0.00278669
0.00283419
0.00288042
0.00292534
0.00296906
0.00301162
0.0030531
0.00309352
0.00313295
0.00317142
0.00320897
0.00324563
0.00328143
0.00331639
0.00335052
0.00338384
0.00341634
0.00344804
0.0034789
0.00350892
0.00353807
0.00356632
0.00359366
0.00362007
0.00364551
0.00366998
0.00369346
0.00371595
0.00373745
0.00375798
0.00377757
0.00379625
0.00381406
0.00383104
0.00384726
0.00386277
0.00387764
0.00389192
0.00390568
0.003919
0.00393192
0.00394452
0.00395684
0.00396891
0.00398076
0.00399238
0.00400377
0.00401487
0.00402569
0.004036
0.00404577
0.00405491
0.00406323
0.00407064
0.00407705
0.00408228
0.00408616
0.00408866
0.00408974
0.00408938
0.00408761
0.00408451
0.00408016
0.00407469
0.00406825
0.004061
0.00405312
0.00404479
0.00403619
0.00402749
0.00401886
0.00401046
0.0040024
0.00399478
0.00398763
0.00398095
0.00397467
0.00396868
0.0039628
0.00395681
0.00395045
0.00394344
0.00393551
0.00392638
0.00391587
0.00390385
0.00389029
0.00387527
0.003859
0.00384175
0.00382389
0.00380581
0.00378792
0.00377057
0.00375407
0.00373863
0.0037244
0.00371139
0.00369951
0.0036884
0.00367639
0.00366057
2.10711e-07
1.04091e-05
5.98199e-05
0.000130951
0.000201928
0.000263154
0.00031203
0.000348867
0.000374955
0.000392649
0.000404283
0.000410907
0.00041401
0.000414797
0.0004142
0.000412917
0.00041145
0.00041016
0.000409337
0.000409257
0.000410171
0.000411984
0.000414583
0.000418076
0.000422474
0.000427682
0.000433795
0.000441527
0.000451581
0.00046381
0.000478236
0.000494998
0.000514359
0.000536427
0.000561348
0.000589181
0.000619924
0.000653544
0.00068994
0.000728975
0.000770485
0.0008143
0.000860251
0.00090817
0.000957885
0.00100922
0.00106201
0.00111609
0.00117131
0.00122753
0.0012846
0.00134236
0.00140065
0.00145929
0.00151804
0.00157698
0.00163607
0.00169524
0.00175447
0.00181376
0.00187318
0.00193301
0.00199271
0.00205214
0.00211123
0.00216995
0.00222828
0.00228615
0.00234352
0.0024003
0.00245647
0.00251203
0.00256685
0.00262086
0.00267402
0.00272624
0.0027774
0.00282741
0.0028762
0.00292371
0.00296994
0.0030149
0.00305863
0.00310116
0.00314257
0.00318291
0.00322224
0.00326061
0.00329806
0.00333464
0.00337038
0.00340529
0.00343941
0.00347274
0.0035053
0.00353707
0.00356804
0.0035982
0.0036275
0.00365593
0.00368345
0.00371002
0.00373562
0.00376019
0.00378372
0.00380618
0.00382756
0.00384787
0.00386713
0.00388537
0.00390264
0.00391897
0.00393443
0.00394908
0.003963
0.00397626
0.00398894
0.00400115
0.00401295
0.00402444
0.0040357
0.00404682
0.00405784
0.00406883
0.00407979
0.00409074
0.00410164
0.00411237
0.0041229
0.0041331
0.00414281
0.0041519
0.00416019
0.00416755
0.00417371
0.00417855
0.004182
0.00418396
0.00418441
0.00418336
0.00418085
0.00417697
0.00417183
0.00416557
0.00415836
0.0041504
0.00414187
0.00413299
0.00412396
0.00411501
0.00410634
0.00409812
0.00409048
0.0040835
0.00407719
0.00407152
0.00406635
0.00406148
0.00405666
0.00405155
0.00404581
0.00403909
0.00403104
0.00402142
0.00401005
0.0039969
0.00398205
0.00396573
0.00394829
0.00393015
0.00391178
0.00389365
0.00387623
0.00385989
0.00384495
0.00383159
0.00381989
0.00380967
0.00379945
0.00378845
2.33907e-07
1.26096e-05
6.85649e-05
0.00014649
0.000222341
0.000286365
0.000336289
0.000372777
0.000397871
0.000414685
0.000425232
0.000430939
0.000433421
0.000433943
0.00043346
0.000432665
0.000432046
0.00043195