/*--------------------------------*- C++ -*----------------------------------*\
| =========                 |                                                 |
| \\      /  F ield         | OpenFOAM: The Open Source CFD Toolbox           |
|  \\    /   O peration     | Version:  2312                                  |
|   \\  /    A nd           | Website:  www.openfoam.com                      |
|    \\/     M anipulation  |                                                 |
\*---------------------------------------------------------------------------*/
FoamFile
{
    version     2.0;
    format      ascii;
    arch        "LSB;label=32;scalar=64";
    class       volScalarField;
    location    "0.2";
    object      omega_0;
}
// * * * * * * * * * * * * * * * * * * * * * * * * * * * * * * * * * * * * * //

dimensions      [0 0 -1 0 0 0 0];

internalField   nonuniform List<scalar> 
12225
(
38106
48440.5
92073.7
91267.2
81690
69767
63094.3
59713.5
58179.3
57561.6
57255.1
57090.7
56911.9
56752.5
56691.7
56507.7
56819
56308.6
2494.22
9287.16
33085.5
41391.6
40084.1
36965.9
34084.7
31957.4
30355.9
29149.3
28235.7
27501.4
26921.2
26435.7
26026
25714.5
25352.9
25259.5
590.389
1571.75
6547.91
14762.2
18299.3
19298.5
19237.4
19007.7
18572.4
18065.2
17569.4
17150.3
16792
16503
16214.9
16018.2
15756
15623.9
456.68
606.514
1404.42
3428.87
5658.78
7112.29
8091.29
8804.14
9315.42
9672.54
9897.44
10061.2
10147.3
10209.5
10232.3
10264.5
10271.3
10326.1
442.477
464.782
584.415
899.151
1547.2
2170.51
2672.66
3149.24
3532.87
3924.38
4204.67
4506.66
4684.78
4884.84
4981.49
5122.43
5188.68
5351.09
441.891
445.225
461.262
514.295
644.453
824.312
982.71
1157.19
1299.26
1457.37
1576.4
1708.7
1796.77
1908.47
1967.87
2056.44
2100.13
2202.68
441.978
442.467
444.116
452.399
474.916
520.395
568.078
629.32
679.409
737.679
783.879
837.181
877.175
927.828
957.986
995.283
1012.22
1050.07
439.789
438.96
439.579
441.748
446.023
455.204
468.006
488.623
505.609
526.684
543.967
565.376
583.392
605.789
621.173
637.289
644.079
657.859
440.052
439.604
440.114
441.386
442.183
443.436
445.668
450.677
454.763
460.63
465.456
472.493
479.264
488.653
496.06
503.72
506.922
512.984
440.816
440.032
440.304
440.783
440.919
441.069
441.108
441.266
441.25
441.15
441.28
441.836
443.017
445.711
448.669
451.781
453.104
455.265
441.197
441.514
440.325
438.731
438.498
438.751
438.829
438.613
437.922
436.135
434.056
432.613
432.137
432.202
432.59
433.172
433.265
433.523
442.361
441.302
439.137
436.769
436.409
436.576
436.68
436.51
435.853
434.072
431.919
430.25
429.241
428.792
428.563
428.316
427.686
426.82
442.251
442.348
439.632
436.325
435.21
434.787
434.508
434.106
433.283
431.883
430.326
429.039
428.226
427.83
427.502
427.036
425.976
424.48
440.711
439.998
437.84
436.382
434.992
433.791
432.999
432.296
431.274
429.911
428.583
427.628
427.094
426.819
426.55
426.074
424.974
423.223
441.478
441.263
440.709
439.251
435.993
433.222
431.727
431.09
430.553
429.408
427.702
426.365
425.557
425.103
424.55
423.687
422.335
420.741
440.338
439.184
437.653
436.891
435.997
433.906
431.497
430.132
429.165
428.067
426.758
425.584
424.556
423.587
422.48
421.17
419.737
418.286
440.599
439.57
439.924
440.172
439.502
436.43
432.229
429.313
427.571
426.641
426.09
425.627
425.083
424.317
423.324
422.111
420.883
419.609
439.735
438.151
437.606
437.414
436.865
435.173
432.359
429.763
427.63
425.959
424.67
423.688
423.114
422.718
422.486
422.123
421.622
421.013
439.386
438.563
437.002
435.246
434.536
434.138
433.167
430.697
428.341
426.433
424.631
422.734
420.812
419.088
417.774
416.958
416.63
416.55
439.816
438.274
436.208
434.708
433.782
432.851
431.845
430.768
429.598
428.311
426.89
425.294
423.514
421.581
419.615
417.74
416.186
415.072
439.852
438.281
436.321
434.874
432.743
430.959
430.438
430.451
430.56
430.485
430.008
428.389
426.164
424.035
421.947
419.955
418.228
416.895
439.954
439.127
437.736
435.523
432.611
431.008
430.814
431.04
431.889
432.298
432.265
431.846
430.398
428.082
425.724
423.471
421.595
420.199
440.854
439.687
439.462
438.772
435.486
432.812
432.444
432.745
434.327
436.999
438.33
438.525
438.21
436.37
434.297
433.342
433.243
433.238
440.073
439.093
439.331
439.055
436.632
434.936
435.244
436.858
441.163
450.398
460.721
466.754
471.963
474.6
479.066
483.201
490.828
496.893
440.899
439.959
440.258
442.275
445.288
450.176
459.672
477.657
515.101
563.344
613.072
643.638
672.465
691.032
718.871
742.504
777.846
805.722
440.729
442.209
446.645
458.798
486.881
547.407
659.599
824.364
1056.23
1263.09
1446.71
1558.34
1656.98
1725.64
1823.9
1911.44
2033.17
2133.31
443.054
465.771
514.487
619.296
862.999
1446.31
2381.73
3262.88
4012.76
4572.78
4977.1
5220.08
5401.18
5527.66
5687.55
5830.09
6011.08
6147.56
490.368
744.823
1128.5
1966.58
4063.07
8022.22
10831.8
12421.9
13232
13434.2
13397.5
13283.3
13101.5
12938.9
12811.7
12692.6
12598.8
12471.1
1428.16
4282.77
7413.44
11566.7
22695.6
30452.2
30387.4
29497.3
27756.5
26101.7
24707.5
23623.5
22812
22204.3
21738.2
21350.5
21029.7
20713.6
23524.1
28373.3
33843.6
42932
66831.4
69322.4
65319.3
56875.6
50485.8
46472.1
44267.1
43122.4
42531.5
42219.3
42003
41841.8
41668.1
41525.3
11463.2
2514.29
2516.61
2519.36
2523.09
2528.09
2534.03
2540.55
2547.31
2554.05
2560.59
2566.79
2572.59
2577.95
2582.85
2587.31
2591.34
2594.99
2598.27
2601.28
2603.98
2606.53
2609.08
2611.58
2614.23
2617.03
2620.09
2623.59
2627.69
2632.52
2638.18
2644.78
2652.37
2660.95
2670.42
2680.7
2691.62
2703.04
2714.85
2726.99
2739.46
2752.35
2765.77
2779.91
2794.89
2810.61
2826.31
2840.38
2850.79
2854.96
2857.32
2860.23
2864.63
2871.36
2880.54
2891.81
2912.4
2967.12
3100.09
3290.64
3510.3
3743.92
3982.98
4221.76
4456.88
4686.22
4908.6
5123.46
5330.58
5529.99
5721.81
5906.25
6083.52
6253.81
6417.24
6574.21
6725.08
6870.2
7009.89
7144.46
7274.2
7399.39
7520.26
7637.02
7749.85
7858.92
7964.37
8066.32
8164.83
8259.95
8351.72
8440.16
8525.26
8607.03
8685.47
8760.56
8832.3
8900.68
8965.71
9027.39
9085.71
9140.68
9192.31
9240.62
9285.63
9327.27
9365.45
9400.13
9431.25
9458.7
9482.5
9501.58
9516.53
9529.01
9536.23
9539.28
9537.79
9531.66
9520.75
9504.94
9484.16
9458.38
9427.58
9391.84
9351.24
9305.97
9256.26
9202.41
9144.69
9083.51
9019.24
8952.34
8883.33
8812.59
8740.57
8667.67
8594.24
8520.64
8447.18
8374.07
8301.5
8229.57
8158.34
8087.83
8017.99
7948.75
7879.99
7811.61
7743.48
7675.48
7607.49
7539.44
7471.28
7403
7334.61
7266.19
7197.86
7129.76
7062.07
6994.98
6928.71
6863.46
6799.45
6736.85
6675.82
6616.45
6558.83
6502.95
6448.76
6396.22
6347.38
6325.46
6356.63
6403.85
6450.77
6495.5
6538.74
6569
6606.25
6475.99
11463.3
2053.72
924.074
688.523
597.957
539.965
495.59
462.841
440.089
425.453
417.052
414.182
414.889
418.063
424.175
431.734
440.391
449.783
459.521
469.289
478.766
487.674
496.359
505.05
513.165
519.982
525.44
530.141
535.057
541.265
549.267
559.31
571.602
586.288
603.395
622.874
644.698
668.896
695.597
725.072
757.769
794.345
835.703
882.962
937.326
999.95
1071.61
1157
1261.47
1383.19
1514.99
1645.65
1764.99
1865.44
1942.54
1995.56
2029.89
2053.73
2077.52
2103.85
2129.93
2155.16
2179.18
2202.05
2223.82
2244.6
2264.57
2283.88
2302.62
2320.88
2338.71
2356.15
2373.23
2389.99
2406.36
2422.41
2438.19
2453.69
2468.93
2483.89
2498.57
2512.94
2526.96
2540.61
2553.84
2566.62
2578.91
2590.68
2601.9
2612.52
2622.52
2631.88
2640.58
2648.62
2655.99
2662.69
2668.74
2674.15
2678.92
2683.06
2686.58
2689.51
2691.84
2693.53
2694.5
2694.79
2694.51
2693.61
2691.97
2689.62
2686.99
2684.61
2682.07
2678.7
2674.44
2669.36
2663.46
2656.67
2649.05
2640.61
2631.41
2621.5
2610.95
2599.82
2588.19
2576.15
2563.77
2551.15
2538.36
2525.47
2512.56
2499.68
2486.9
2474.26
2461.78
2449.48
2437.34
2425.38
2413.58
2401.9
2390.32
2378.8
2367.31
2355.8
2344.25
2332.62
2320.9
2309.07
2297.13
2285.08
2272.94
2260.73
2248.49
2236.26
2224.1
2212.04
2200.14
2188.46
2177.05
2165.93
2155.16
2144.74
2134.68
2125
2115.66
2106.64
2097.93
2089.48
2081.27
2073.32
2066.08
2063.98
2069.99
2080.17
2091.14
2102.62
2114.69
2127.06
2142.95
2163.74
11463.3
2281.94
1086.37
740.417
563.878
448.86
371.474
318.275
281.581
256.251
238.997
227.852
221.266
218.18
218.122
219.43
222.649
227.446
233.327
240.081
247.519
255.499
264.013
273.067
282.565
292.42
302.665
313.486
325.218
338.264
353.002
369.784
388.978
410.947
436.027
464.625
497.254
534.466
576.72
624.405
677.733
736.614
800.593
868.809
939.571
1010.76
1080.73
1149.58
1217.14
1274.81
1311.69
1340.41
1359.82
1371.99
1377.87
1379.96
1379.92
1375.29
1369.74
1363.41
1357.29
1351.83
1347.27
1343.72
1341.32
1339.99
1339.4
1339.49
1340.58
1342.32
1344.66
1347.53
1350.85
1354.57
1358.62
1362.96
1367.55
1372.35
1377.31
1382.39
1387.57
1392.79
1398.04
1403.26
1408.44
1413.55
1418.56
1423.44
1428.18
1432.76
1437.17
1441.39
1445.41
1449.23
1452.83
1456.23
1459.42
1462.39
1465.14
1467.68
1469.99
1472.09
1473.98
1475.72
1477.36
1478.81
1479.99
1480.91
1481.55
1481.95
1482.17
1482.26
1482.18
1481.77
1481.07
1480.05
1478.74
1477.13
1475.24
1473.09
1470.7
1468.11
1465.33
1462.39
1459.33
1456.16
1452.93
1449.66
1446.36
1443.06
1439.77
1436.5
1433.27
1430.08
1426.92
1423.78
1420.65
1417.51
1414.34
1411.14
1407.88
1404.53
1401.09
1397.53
1393.86
1390.05
1386.11
1382.03
1377.83
1373.52
1369.12
1364.64
1360.11
1355.55
1351
1346.48
1342.01
1337.62
1333.33
1329.16
1325.1
1321.17
1317.36
1313.66
1310.07
1306.56
1303.12
1299.74
1296.42
1293.18
1290.19
1288.67
1289.45
1292.01
1295.3
1299.24
1303.75
1309.55
1317.56
1338.41
11463.4
2565.98
1200.47
759.683
536.732
405.62
324.322
271.974
237.472
214.64
199.611
189.765
183.626
180.367
179.44
180.11
182.292
186.085
191.12
197.296
204.55
212.874
222.269
232.713
244.2
256.767
270.51
285.606
302.317
320.97
341.899
365.385
391.521
420.468
452.749
488.803
529.189
574.426
623.965
676.997
732.13
787.15
839.52
889.339
936.316
980.44
1014.71
1033.54
1042.37
1046.18
1049.36
1050.31
1048.93
1045.32
1040.64
1035.08
1028.8
1021.79
1014.88
1008.24
1002.28
997.167
992.996
989.759
987.415
986.095
985.486
985.331
986.007
987.219
988.926
991.061
993.572
996.409
999.536
1002.91
1006.49
1010.24
1014.14
1018.14
1022.22
1026.35
1030.51
1034.68
1038.82
1042.94
1047
1050.99
1054.91
1058.74
1062.47
1066.1
1069.62
1073.03
1076.32
1079.49
1082.53
1085.45
1088.24
1090.91
1093.45
1095.9
1098.23
1100.44
1102.54
1104.51
1106.32
1107.97
1109.45
1110.79
1111.98
1113.03
1113.92
1114.64
1115.17
1115.52
1115.7
1115.71
1115.56
1115.26
1114.82
1114.26
1113.59
1112.81
1111.95
1111.02
1110.02
1108.97
1107.87
1106.73
1105.54
1104.33
1103.09
1101.81
1100.49
1099.12
1097.69
1096.2
1094.64
1092.99
1091.25
1089.42
1087.48
1085.43
1083.27
1080.99
1078.6
1076.1
1073.49
1070.8
1068.02
1065.17
1062.28
1059.34
1056.38
1053.42
1050.46
1047.52
1044.62
1041.75
1038.93
1036.15
1033.43
1030.74
1028.09
1025.47
1022.88
1020.31
1017.78
1015.28
1012.93
1011.15
1010.33
1010.4
1011.01
1012.2
1013.9
1016.7
1021.39
1034.72
11464.4
2741.6
1206.28
687.54
455.802
339.599
275.199
236.473
211.767
195.436
184.643
177.684
173.545
171.577
171.492
172.847
175.876
180.395
186.306
193.597
202.253
212.251
223.55
236.152
250.108
265.501
282.456
301.165
321.911
345.052
370.841
399.572
431.56
466.932
505.402
546.494
589.276
632.376
674.52
714.01
751.133
786.008
819.46
845.574
859.445
865.096
866.676
866.899
865.484
862.975
860.076
856.411
852.232
847.709
843.096
838.435
833.837
829.433
825.452
821.995
819.175
817.048
815.693
815.04
814.858
815.326
816.344
817.832
819.792
822.132
824.817
827.802
831.05
834.526
838.199
842.036
846.009
850.091
854.255
858.479
862.741
867.021
871.3
875.563
879.796
883.986
888.123
892.198
896.205
900.137
903.989
907.758
911.439
915.029
918.526
921.925
925.225
928.421
931.514
934.506
937.404
940.203
942.897
945.481
947.954
950.307
952.532
954.623
956.579
958.401
960.089
961.642
963.056
964.327
965.453
966.436
967.283
967.997
968.584
969.05
969.398
969.637
969.772
969.8
969.741
969.589
969.347
969.027
968.623
968.134
967.561
966.904
966.167
965.344
964.431
963.426
962.326
961.129
959.833
958.437
956.938
955.336
953.633
951.831
949.931
947.933
945.842
943.661
941.396
939.054
936.641
934.166
931.636
929.06
926.447
923.804
921.14
918.461
915.776
913.088
910.403
907.723
905.051
902.389
899.737
897.096
894.468
891.861
889.285
886.765
884.347
882.214
880.567
879.442
878.726
878.479
878.669
879.708
882.27
889.999
11467.2
2759.71
1090.11
587.48
392.539
300.22
249.791
219.698
200.72
188.409
180.361
175.481
173.133
172.899
174.372
177.518
182.185
188.309
195.863
204.842
215.281
227.236
240.789
256.009
272.962
291.737
312.442
335.192
360.078
387.148
416.477
447.96
481.27
515.781
550.577
584.512
616.336
646.155
674.188
701.122
723.098
737.375
744.039
746.686
747.415
746.952
745.099
742.876
740.235
737.448
734.596
731.649
728.723
725.893
723.245
720.826
718.708
716.979
715.704
715.04
714.816
715.082
715.938
717.271
719.046
721.27
723.885
726.854
730.146
733.718
737.537
741.573
745.795
750.175
754.686
759.304
764.003
768.762
773.561
778.379
783.198
788.005
792.783
797.521
802.209
806.839
811.404
815.898
820.318
824.66
828.922
833.101
837.195
841.202
845.121
848.947
852.679
856.309
859.84
863.277
866.613
869.843
872.962
875.965
878.849
881.607
884.235
886.73
889.09
891.313
893.398
895.345
897.155
898.827
900.363
901.766
903.04
904.189
905.215
906.122
906.911
907.585
908.145
908.59
908.922
909.14
909.226
909.211
909.074
908.809
908.415
907.892
907.24
906.456
905.54
904.492
903.315
902.011
900.585
899.042
897.386
895.623
893.76
891.805
889.767
887.646
885.447
883.176
880.837
878.435
875.974
873.457
870.886
868.266
865.597
862.882
860.124
857.326
854.49
851.619
848.718
845.79
842.841
839.877
836.904
833.929
830.962
828.016
825.106
822.253
819.492
816.913
814.627
812.688
811.074
809.833
808.973
808.875
809.804
813.728
11472
2596.74
952.21
514.976
354.13
278.786
237.665
213.126
197.604
187.85
182.179
179.507
179.184
180.824
184.2
189.187
195.715
203.756
213.312
224.403
237.069
251.357
267.315
284.985
304.394
325.55
348.433
372.968
398.998
426.254
454.329
482.657
510.529
537.129
562.2
585.906
608.751
628.478
643.506
652.487
657.703
660.259
661.231
661.303
660.359
659.009
657.388
655.74
654.088
652.513
651.039
649.692
648.521
647.571
646.936
646.647
646.6
647.009
647.86
649.163
650.898
653.078
655.69
658.695
662.069
665.79
669.823
674.136
678.701
683.486
688.463
693.603
698.88
704.269
709.745
715.285
720.868
726.474
732.083
737.679
743.247
748.773
754.245
759.652
764.988
770.247
775.424
780.516
785.522
790.44
795.269
800.009
804.658
809.215
813.68
818.05
822.325
826.504
830.588
834.564
838.428
842.171
845.79
849.277
852.627
855.836
858.897
861.804
864.557
867.157
869.607
871.906
874.058
876.064
877.928
879.654
881.245
882.706
884.038
885.243
886.321
887.271
888.091
888.779
889.331
889.743
889.999
890.1
890.063
889.853
889.473
888.92
888.195
887.295
886.223
884.983
883.581
882.024
880.322
878.484
876.523
874.449
872.271
869.994
867.625
865.186
862.685
860.129
857.522
854.868
852.168
849.423
846.631
843.788
840.892
837.939
834.926
831.849
828.709
825.503
822.234
818.907
815.53
812.111
808.663
805.199
801.736
798.293
794.89
791.553
788.309
785.212
782.33
779.71
777.363
775.323
773.605
772.455
772.162
773.456
11478
2356.5
839.738
468.331
333.117
268.89
233.491
212.292
199.547
192.245
188.763
188.043
189.568
193.034
198.237
205.063
213.45
223.373
234.824
247.806
262.324
278.372
295.929
314.941
335.304
356.857
379.367
402.52
425.93
449.157
471.705
493.179
513.7
533.477
551.652
566.839
577.565
585.225
590.487
593.967
595.72
596.473
596.678
596.488
595.982
595.416
594.872
594.42
594.115
593.985
593.976
594.197
594.665
595.411
596.472
597.868
599.612
601.76
604.315
607.278
610.643
614.404
618.538
623.021
627.828
632.934
638.308
643.924
649.754
655.77
661.943
668.244
674.648
681.128
687.662
694.227
700.802
707.368
713.908
720.403
726.841
733.213
739.503
745.704
751.81
757.818
763.724
769.528
775.229
780.827
786.323
791.717
797.009
802.199
807.284
812.265
817.145
821.914
826.566
831.09
835.482
839.734
843.84
847.793
851.589
855.222
858.688
861.986
865.113
868.069
870.857
873.478
875.936
878.233
880.376
882.368
884.213
885.915
887.477
888.898
890.178
891.313
892.301
893.134
893.807
894.31
894.623
894.748
894.695
894.426
893.942
893.239
892.317
891.174
889.815
888.249
886.484
884.536
882.419
880.151
877.749
875.23
872.611
869.908
867.136
864.307
861.43
858.513
855.562
852.579
849.565
846.518
843.432
840.3
837.114
833.864
830.54
827.136
823.644
820.061
816.384
812.618
808.77
804.855
800.887
796.886
792.876
788.881
784.929
781.049
777.271
773.632
770.178
766.936
763.915
761.162
758.691
756.662
755.228
754.723
11484
2111.03
766.106
444.374
323.901
265.889
234.011
215.678
205.244
200.035
198.382
199.34
202.547
207.675
214.523
222.967
232.929
244.356
257.197
271.389
286.853
303.494
321.175
339.706
358.848
378.319
397.811
416.998
435.523
453.378
470.654
487.274
502.067
513.976
523.29
530.508
536.241
540.365
543.23
545.148
546.367
547.189
547.792
548.273
548.729
549.252
549.892
550.687
551.665
552.845
554.245
555.906
557.85
560.103
562.69
565.628
568.935
572.632
576.722
581.205
586.076
591.322
596.918
602.838
609.057
615.548
622.283
629.231
636.366
643.671
651.106
658.638
666.24
673.887
681.555
689.221
696.867
704.473
712.022
719.496
726.877
734.142
741.304
748.357
755.297
762.119
768.823
775.408
781.875
788.224
794.457
800.576
806.579
812.467
818.236
823.882
829.396
834.775
840.015
845.109
850.047
854.824
859.432
863.863
868.114
872.178
876.052
879.733
883.222
886.519
889.627
892.549
895.289
897.852
900.244
902.469
904.532
906.439
908.191
909.788
911.228
912.507
913.619
914.556
915.306
915.859
916.183
916.293
916.17
915.788
915.142
914.225
913.033
911.567
909.831
907.838
905.604
903.149
900.496
897.67
894.698
891.606
888.416
885.151
881.831
878.47
875.083
871.678
868.262
864.838
861.404
857.959
854.491
850.989
847.438
843.823
840.126
836.332
832.428
828.402
824.248
819.966
815.566
811.061
806.473
801.827
797.156
792.494
787.876
783.339
778.915
774.64
770.549
766.676
763.038
759.657
756.538
753.787
751.488
749.577
11488.9
1951.42
733.082
434.607
321.376
267.08
237.971
221.746
213.238
209.785
209.529
211.957
216.58
223.062
231.183
240.789
251.766
264.011
277.385
291.711
306.817
322.506
338.609
354.91
371.178
387.171
402.706
417.838
432.696
446.614
458.883
469.078
477.651
484.95
490.909
495.674
499.473
502.429
504.745
506.611
508.192
509.632
511.026
512.442
513.943
515.579
517.385
519.393
521.626
524.109
526.866
529.925
533.309
537.042
541.144
545.62
550.48
555.729
561.37
567.396
573.807
580.614
587.756
595.201
602.922
610.888
619.068
627.425
635.911
644.458
653.08
661.786
670.553
679.351
688.151
696.927
705.661
714.334
722.93
731.433
739.834
748.129
756.297
764.323
772.205
779.938
787.523
794.96
802.252
809.4
816.407
823.274
830.001
836.588
843.031
849.324
855.463
861.444
867.261
872.905
878.367
883.64
888.715
893.585
898.243
902.687
906.914
910.924
914.717
918.296
921.667
924.834
927.804
930.58
933.171
935.582
937.818
939.884
941.782
943.512
945.072
946.455
947.655
948.659
949.455
950.025
950.333
950.396
950.171
949.64
948.792
947.613
946.097
944.241
942.051
939.541
936.732
933.652
930.334
926.815
923.132
919.321
915.415
911.447
907.44
903.418
899.397
895.39
891.402
887.44
883.501
879.581
875.667
871.741
867.785
863.772
859.678
855.478
851.149
846.668
842.022
837.203
832.219
827.084
821.823
816.471
811.066
805.656
800.287
795.004
789.85
784.861
780.072
775.513
771.202
767.155
763.369
759.909
756.828
753.694
11493.2
1908.09
720.44
431.756
322.566
270.931
243.776
229.246
222.307
220.114
221.035
224.6
230.255
237.636
246.483
256.599
267.818
279.981
292.89
306.273
319.769
333.317
346.908
360.325
373.497
386.479
399.2
411.055
421.459
430.662
438.813
445.986
452.165
457.468
461.971
465.794
469.072
471.923
474.472
476.838
479.12
481.404
483.751
486.214
488.839
491.665
494.725
498.049
501.652
505.558
509.789
514.37
519.327
524.692
530.524
536.76
543.392
550.413
557.81
565.555
573.595
581.819
590.351
599.202
608.342
617.738
627.354
637.154
647.101
657.174
667.32
677.493
687.667
697.815
707.89
717.874
727.755
737.525
747.176
756.7
766.086
775.323
784.402
793.32
802.072
810.654
819.065
827.304
835.373
843.274
851.01
858.582
865.989
873.231
880.304
887.201
893.917
900.444
906.776
912.903
918.815
924.502
929.953
935.161
940.119
944.825
949.279
953.486
957.452
961.183
964.69
967.98
971.062
973.944
976.634
979.138
981.464
983.614
985.589
987.388
989.007
990.441
991.681
992.712
993.517
994.072
994.347
994.335
993.99
993.292
992.221
990.755
988.881
986.594
983.895
980.797
977.325
973.512
969.403
965.049
960.5
955.808
951.019
946.177
941.319
936.476
931.672
926.921
922.232
917.615
913.069
908.587
904.154
899.748
895.342
890.906
886.402
881.796
877.05
872.129
867.005
861.66
856.093
850.317
844.358
838.255
832.06
825.832
819.633
813.522
807.553
801.771
796.213
790.912
785.887
781.148
776.688
772.538
768.748
764.566
11496.5
1885.12
714.576
431.862
325.738
275.992
250.309
237.165
231.428
230.103
231.894
236.197
242.426
250.174
259.142
269.089
279.805
291.09
302.727
314.458
326.029
337.295
348.256
359.192
369.975
380.066
389.246
397.654
405.414
412.416
418.708
424.345
429.382
433.897
437.97
441.691
445.151
448.44
451.643
454.842
458.104
461.485
465.03
468.784
472.787
477.08
481.71
486.758
492.153
497.896
504.002
510.481
517.327
524.501
531.87
539.657
547.909
556.619
565.77
575.338
585.308
595.705
606.45
617.486
628.752
640.194
651.767
663.446
675.17
686.874
698.504
710.016
721.372
732.552
743.562
754.402
765.077
775.599
785.981
796.229
806.342
816.314
826.139
835.811
845.315
854.639
863.777
872.727
881.488
890.06
898.445
906.643
914.651
922.466
930.083
937.494
944.689
951.658
958.393
964.881
971.111
977.071
982.748
988.133
993.217
997.997
1002.47
1006.65
1010.56
1014.21
1017.63
1020.81
1023.79
1026.56
1029.15
1031.57
1033.82
1035.91
1037.84
1039.59
1041.17
1042.56
1043.76
1044.75
1045.51
1046.01
1046.21
1046.1
1045.63
1044.76
1043.47
1041.72
1039.49
1036.76
1033.54
1029.83
1025.65
1021.03
1016.03
1010.72
1005.15
999.415
993.559
987.649
981.741
975.879
970.101
964.428
958.866
953.439
948.151
942.991
937.938
932.973
928.062
923.166
918.239
913.231
908.092
902.768
897.209
891.384
885.275
878.885
872.237
865.375
858.357
851.26
844.163
837.146
830.278
823.619
817.216
811.107
805.312
799.842
794.684
789.844
785.39
780.293
11498.8
1868.1
711.861
433.722
329.754
281.384
256.856
244.74
239.851
239.079
241.382
246.019
252.37
259.998
268.573
277.833
287.553
297.536
307.589
317.518
327.171
336.6
345.711
354.168
362.111
369.733
376.974
383.752
390.071
395.934
401.385
406.473
411.253
415.785
420.134
424.368
428.559
432.778
437.105
441.633
446.457
451.534
456.894
462.563
468.561
474.881
481.459
488.118
495.12
502.551
510.44
518.81
527.684
537.107
547.186
557.857
569.097
580.888
593.164
605.874
618.969
632.408
646.119
660.008
673.919
687.757
701.44
714.883
728.047
740.918
753.471
765.691
777.576
789.138
800.406
811.397
822.137
832.686
843.1
853.42
863.67
873.854
883.981
894.04
903.986
913.779
923.396
932.827
942.069
951.118
959.969
968.621
977.068
985.304
993.315
1001.09
1008.61
1015.87
1022.84
1029.51
1035.88
1041.92
1047.62
1052.96
1057.94
1062.56
1066.8
1070.65
1074.18
1077.41
1080.38
1083.1
1085.61
1087.92
1090.07
1092.06
1093.93
1095.68
1097.31
1098.8
1100.14
1101.31
1102.33
1103.16
1103.77
1104.13
1104.2
1103.95
1103.32
1102.28
1100.78
1098.78
1096.23
1093.11
1089.39
1085.1
1080.24
1074.84
1068.93
1062.59
1055.92
1048.99
1041.91
1034.73
1027.55
1020.43
1013.44
1006.62
999.963
993.515
987.296
981.293
975.474
969.828
964.321
958.9
953.514
948.101
942.591
936.911
930.987
924.761
918.194
911.268
903.993
896.408
888.579
880.593
872.551
864.562
856.717
849.096
841.764
834.77
828.141
821.886
815.994
810.448
805.354
799.445
11500.2
1856.32
710.937
436.226
333.875
286.559
262.894
251.478
247.116
246.636
249.131
253.759
259.877
267.036
274.9
283.21
291.762
300.389
308.954
317.352
325.567
333.295
340.555
347.541
354.221
360.631
366.839
372.876
378.737
384.428
390.003
395.541
401.046
406.562
412.14
417.813
423.608
429.55
435.649
441.863
448.125
454.715
461.721
469.202
477.223
485.869
495.182
505.157
515.712
526.849
538.582
550.927
563.917
577.619
592.193
607.484
623.349
639.691
656.37
673.291
690.35
707.429
724.378
741.085
757.503
773.542
789.11
804.121
818.505
832.206
845.174
857.377
868.809
879.5
889.549
899.056
908.16
917.058
925.896
934.796
943.847
953.036
962.417
972.017
981.724
991.384
1000.93
1010.34
1019.6
1028.71
1037.64
1046.39
1054.96
1063.32
1071.46
1079.35
1086.97
1094.29
1101.28
1107.93
1114.2
1120.08
1125.55
1130.6
1135.21
1139.39
1143.14
1146.46
1149.38
1151.91
1154.09
1155.96
1157.54
1158.89
1160.06
1161.06
1161.96
1162.77
1163.53
1164.25
1164.92
1165.54
1166.07
1166.49
1166.76
1166.82
1166.62
1166.12
1165.26
1164.01
1162.32
1160.1
1157.32
1153.89
1149.77
1144.99
1139.55
1133.47
1126.8
1119.59
1111.89
1103.8
1095.41
1086.83
1078.16
1069.5
1060.97
1052.63
1044.58
1036.83
1029.42
1022.33
1015.54
1009.03
1002.77
996.709
990.781
984.924
979.044
973.045
966.832
960.312
953.411
946.08
938.3
930.097
921.53
912.692
903.705
894.704
885.816
877.151
868.803
860.841
853.3
846.192
839.516
833.234
827.5
820.859
11500.8
1847.51
710.853
438.828
337.729
291.243
268.171
257.174
253.091
252.719
255.181
259.579
265.268
271.812
278.893
286.28
293.807
301.363
308.891
316.202
323.278
330.221
337.025
343.741
350.399
357.036
363.678
370.307
376.94
383.6
390.211
396.751
403.404
410.271
417.464
424.945
432.704
440.768
449.179
458.015
467.403
477.37
488.006
499.4
511.663
524.942
539.225
554.509
570.532
587.218
604.533
622.45
640.936
659.925
679.267
698.914
718.813
738.845
758.95
779.044
799.035
818.824
838.302
857.364
875.922
893.883
911.154
927.643
943.262
957.922
971.538
984.028
995.333
1005.44
1014.46
1022.52
1029.67
1036.31
1042.69
1048.98
1055.36
1061.92
1068.87
1076.51
1084.88
1093.38
1101.86
1110.26
1118.58
1126.81
1134.95
1142.98
1150.9
1158.69
1166.32
1173.78
1181.01
1187.99
1194.66
1201.01
1206.98
1212.54
1217.66
1222.29
1226.42
1230.03
1233.12
1235.71
1237.75
1239.26
1240.28
1240.83
1240.98
1240.82
1240.38
1239.74
1238.97
1238.14
1237.29
1236.48
1235.75
1235.08
1234.45
1233.83
1233.2
1232.52
1231.73
1230.75
1229.51
1227.94
1225.96
1223.52
1220.53
1216.94
1212.68
1207.69
1201.96
1195.48
1188.29
1180.4
1171.86
1162.73
1153.14
1143.18
1132.98
1122.68
1112.4
1102.28
1092.46
1082.98
1073.91
1065.3
1057.18
1049.53
1042.3
1035.4
1028.77
1022.36
1016.06
1009.74
1003.29
996.579
989.494
981.935
973.839
965.194
956.046
946.479
936.619
926.624
916.665
906.895
897.446
888.422
879.881
871.837
864.311
857.243
850.848
843.533
11502
1841.81
711.45
441.403
341.306
295.508
272.84
262.114
258.207
257.866
260.213
264.337
269.614
275.645
282.161
289.001
296.036
303.144
310.249
317.419
324.62
331.917
339.319
346.818
354.467
362.358
370.601
379.1
387.717
396.462
405.428
414.786
424.584
434.983
446.073
457.627
469.661
482.224
495.384
509.235
523.88
539.371
555.825
573.325
591.69
610.738
630.291
650.288
670.885
692.087
713.856
736.134
758.845
781.895
805.161
828.536
851.914
875.187
898.251
921.005
943.343
965.164
986.368
1006.86
1026.57
1045.41
1063.33
1080.27
1096.17
1110.99
1124.67
1137.15
1148.34
1158.04
1166.44
1173.91
1180.58
1186.53
1191.88
1196.72
1201.15
1205.4
1209.77
1214.67
1220.36
1226.19
1232.02
1237.86
1243.7
1249.58
1255.51
1261.48
1267.5
1273.56
1279.64
1285.71
1291.71
1297.59
1303.31
1308.79
1313.98
1318.83
1323.25
1327.18
1330.56
1333.33
1335.45
1336.9
1337.65
1337.71
1337.21
1336.05
1334.41
1332.33
1329.91
1327.23
1324.37
1321.44
1318.5
1315.62
1312.84
1310.18
1307.68
1305.34
1303.15
1301.09
1299.14
1297.18
1295.13
1292.91
1290.43
1287.61
1284.34
1280.56
1276.16
1271.03
1265.1
1258.33
1250.71
1242.26
1233.04
1223.11
1212.59
1201.56
1190.14
1178.47
1166.68
1154.9
1143.25
1131.85
1120.84
1110.32
1100.41
1091.11
1082.41
1074.3
1066.7
1059.51
1052.63
1045.89
1039.18
1032.33
1025.18
1017.58
1009.4
1000.55
991.06
980.975
970.408
959.523
948.527
937.627
927.002
916.806
907.148
898.057
889.581
881.652
874.535
866.572
11507.8
1836.09
711.361
443.31
344.298
299.213
277.052
266.756
263.18
263.021
265.509
269.707
275.062
281.199
287.851
294.848
302.138
309.779
317.801
326.223
335.239
345.132
355.761
366.561
377.694
389.501
402.167
415.316
428.784
442.793
457.483
472.892
489.018
505.834
523.196
541.173
559.783
579.067
599.084
619.912
641.625
664.183
687.527
711.682
736.526
761.901
787.689
813.795
840.18
866.784
893.524
920.303
947.016
973.549
999.785
1025.61
1050.93
1075.65
1099.66
1122.89
1145.26
1166.69
1187.12
1206.5
1224.77
1241.91
1257.9
1272.74
1286.42
1298.95
1310.35
1320.62
1329.75
1337.62
1344.08
1349.53
1354.23
1358.14
1361.42
1364.23
1366.68
1369.06
1371.71
1374.16
1375.96
1377.56
1379.15
1380.84
1382.7
1384.77
1387.1
1389.7
1392.56
1395.67
1399.01
1402.54
1406.21
1409.95
1413.69
1417.34
1420.85
1424.12
1427.06
1429.58
1431.6
1433.03
1433.82
1433.93
1433.4
1432.05
1430.03
1427.37
1424.14
1420.39
1416.21
1411.69
1406.93
1402.04
1397.11
1392.22
1387.43
1382.79
1378.36
1374.16
1370.2
1366.47
1362.95
1359.57
1356.28
1353
1349.64
1346.1
1342.24
1337.94
1333.07
1327.53
1321.22
1314.1
1306.14
1297.36
1287.8
1277.53
1266.62
1255.13
1243.18
1230.83
1218.22
1205.45
1192.62
1179.88
1167.35
1155.18
1143.49
1132.36
1121.91
1112.21
1103.21
1094.85
1087.08
1079.75
1072.69
1065.69
1058.54
1051.04
1043.02
1034.34
1024.91
1014.7
1003.79
992.305
980.471
968.528
956.709
945.234
934.303
924.047
914.52
905.648
897.734
889.14
11516
1836.41
712.148
445.213
347.198
303.079
281.931
272.603
269.788
270.488
273.883
279.032
285.394
292.698
300.863
309.815
319.568
330.726
343.754
357.317
371.93
388.304
405.756
423.468
442.069
461.82
482.638
504.557
527.758
552.251
577.923
604.583
632.019
660.031
688.456
717.271
746.395
775.755
805.355
835.275
865.863
896.735
927.6
958.137
988.414
1018.39
1047.96
1077.09
1105.75
1133.91
1161.52
1188.53
1214.87
1240.48
1265.27
1289.19
1312.18
1334.18
1355.14
1375.01
1393.76
1411.34
1427.72
1442.88
1456.8
1469.47
1480.9
1491.11
1500.14
1508.03
1514.86
1520.73
1525.8
1530.39
1534.32
1537.11
1538.4
1538.51
1538.03
1537.12
1535.94
1534.6
1533.04
1530.94
1527.94
1524.66
1521.39
1518.31
1515.53