/*--------------------------------*- C++ -*----------------------------------*\
| =========                 |                                                 |
| \\      /  F ield         | OpenFOAM: The Open Source CFD Toolbox           |
|  \\    /   O peration     | Version:  2312                                  |
|   \\  /    A nd           | Website:  www.openfoam.com                      |
|    \\/     M anipulation  |                                                 |
\*---------------------------------------------------------------------------*/
FoamFile
{
    version     2.0;
    format      ascii;
    arch        "LSB;label=32;scalar=64";
    class       surfaceScalarField;
    location    "0.2";
    object      phiMean;
}
// * * * * * * * * * * * * * * * * * * * * * * * * * * * * * * * * * * * * * //

dimensions      [0 3 -1 0 0 0 0];

oriented        oriented;

internalField   nonuniform List<scalar> 
24170
(
3.05195e-06
1.42353e-07
2.57823e-06
4.7372e-07
1.80477e-06
7.73464e-07
1.27236e-06
5.3241e-07
1.00901e-06
2.63343e-07
9.0401e-07
1.05004e-07
8.68973e-07
3.50369e-08
8.62132e-07
6.84098e-09
8.63227e-07
-1.09476e-09
8.64392e-07
-1.16492e-09
8.63998e-07
3.9366e-10
8.631e-07
8.9803e-10
8.6224e-07
8.60408e-10
8.63412e-07
-1.17148e-09
8.63895e-07
-4.83255e-10
8.70992e-07
-7.09758e-09
8.70698e-07
2.94269e-10
-3.47517e-08
9.0545e-07
3.42415e-06
1.349e-07
3.44498e-06
4.5289e-07
3.3414e-06
8.7704e-07
3.06648e-06
8.0733e-07
2.79642e-06
5.33399e-07
2.59516e-06
3.06264e-07
2.45537e-06
1.74828e-07
2.35862e-06
1.03598e-07
2.29063e-06
6.68949e-08
2.24146e-06
4.80031e-08
2.20451e-06
3.73395e-08
2.176e-06
2.94057e-08
2.15332e-06
2.35441e-08
2.13569e-06
1.64562e-08
2.12229e-06
1.29233e-08
2.1131e-06
2.08818e-09
2.11429e-06
-8.93604e-10
-2.81283e-08
2.10767e-06
3.65887e-06
1.3749e-07
3.70517e-06
4.06594e-07
3.81884e-06
7.63373e-07
3.83324e-06
7.92926e-07
3.76551e-06
6.0113e-07
3.67108e-06
4.00691e-07
3.5744e-06
2.71509e-07
3.48264e-06
1.95354e-07
3.39958e-06
1.49962e-07
3.32638e-06
1.21199e-07
3.26261e-06
1.01111e-07
3.20755e-06
8.44676e-08
3.16048e-06
7.06133e-08
3.12061e-06
5.63273e-08
3.08821e-06
4.53189e-08
3.06102e-06
2.92827e-08
3.04255e-06
1.75723e-08
-6.4482e-09
3.02087e-06
3.9257e-06
1.33884e-07
3.95983e-06
3.72455e-07
4.06444e-06
6.58768e-07
4.1458e-06
7.11562e-07
4.17375e-06
5.73184e-07
4.16931e-06
4.05128e-07
4.15157e-06
2.89256e-07
4.12596e-06
2.2096e-07
4.09614e-06
1.79782e-07
4.06481e-06
1.52532e-07
4.03316e-06
1.32759e-07
4.00183e-06
1.15799e-07
3.97133e-06
1.01107e-07
3.94207e-06
8.55945e-08
3.91526e-06
7.21237e-08
3.8897e-06
5.4848e-08
3.8676e-06
3.96698e-08
1.82177e-08
3.84293e-06
4.21196e-06
1.26362e-07
4.24304e-06
3.41371e-07
4.32889e-06
5.72915e-07
4.40887e-06
6.31583e-07
4.45241e-06
5.29643e-07
4.46802e-06
3.89524e-07
4.47227e-06
2.85005e-07
4.47186e-06
2.21372e-07
4.46921e-06
1.82428e-07
4.4658e-06
1.55939e-07
4.46236e-06
1.362e-07
4.45878e-06
1.19385e-07
4.45506e-06
1.04822e-07
4.45074e-06
8.99185e-08
4.44665e-06
7.62141e-08
4.44127e-06
6.02254e-08
4.43588e-06
4.50564e-08
2.73274e-08
4.42677e-06
4.51953e-06
1.18293e-07
4.54985e-06
3.11055e-07
4.62374e-06
4.9902e-07
4.69827e-06
5.57057e-07
4.74447e-06
4.83438e-07
4.76488e-06
3.69119e-07
4.77282e-06
2.77061e-07
4.77673e-06
2.17464e-07
4.77967e-06
1.79488e-07
4.78267e-06
1.52939e-07
4.78616e-06
1.32708e-07
4.78991e-06
1.15642e-07
4.79396e-06
1.00772e-07
4.79767e-06
8.6204e-08
4.80147e-06
7.24097e-08
4.80408e-06
5.76206e-08
4.80592e-06
4.32163e-08
2.81243e-08
4.80512e-06
4.84541e-06
1.08629e-07
4.87663e-06
2.79834e-07
4.94177e-06
4.33881e-07
5.01108e-06
4.87749e-07
5.0587e-06
4.35817e-07
5.08328e-06
3.44541e-07
5.09446e-06
2.65879e-07
5.10059e-06
2.11333e-07
5.10552e-06
1.7456e-07
5.11045e-06
1.48011e-07
5.11573e-06
1.27426e-07
5.12123e-06
1.10143e-07
5.12696e-06
9.5048e-08
5.13244e-06
8.07206e-08
5.13774e-06
6.71061e-08
5.14207e-06
5.32947e-08
5.14541e-06
3.98718e-08
2.66573e-08
5.14688e-06
5.19448e-06
9.7737e-08
5.22492e-06
2.49395e-07
5.28292e-06
3.75875e-07
5.3462e-06
4.2447e-07
5.39336e-06
3.88662e-07
5.42144e-06
3.1646e-07
5.4369e-06
2.5042e-07
5.44628e-06
2.01951e-07
5.4535e-06
1.67335e-07
5.46014e-06
1.41375e-07
5.46671e-06
1.20853e-07
5.47325e-06
1.03602e-07
5.47978e-06
8.85258e-08
5.48598e-06
7.4518e-08
5.49177e-06
6.13107e-08
5.49667e-06
4.83939e-08
5.50053e-06
3.60166e-08
2.42804e-08
5.50291e-06
5.56198e-06
8.40376e-08
5.59371e-06
2.17661e-07
5.64699e-06
3.22591e-07
5.70543e-06
3.66039e-07
5.75142e-06
3.42671e-07
5.78144e-06
2.86432e-07
5.80046e-06
2.31404e-07
5.81343e-06
1.88979e-07
5.82349e-06
1.57278e-07
5.83223e-06
1.32633e-07
5.84037e-06
1.12714e-07
5.8481e-06
9.58683e-08
5.85551e-06
8.11223e-08
5.86241e-06
6.76138e-08
5.86871e-06
5.50094e-08
5.8741e-06
4.30015e-08
5.87844e-06
3.16767e-08
2.12125e-08
5.88151e-06
5.9583e-06
7.03257e-08
5.98902e-06
1.86939e-07
6.03788e-06
2.73729e-07
6.09175e-06
3.12173e-07
6.13622e-06
2.98201e-07
6.16727e-06
2.5538e-07
6.18859e-06
2.10085e-07
6.20432e-06
1.73249e-07
6.21695e-06
1.44651e-07
6.22782e-06
1.21764e-07
6.23765e-06
1.02881e-07
6.24673e-06
8.6788e-08
6.25518e-06
7.26739e-08
6.26292e-06
5.98722e-08
6.26988e-06
4.80478e-08
6.27588e-06
3.7006e-08
6.28082e-06
2.67352e-08
1.74337e-08
6.2846e-06
6.38748e-06
5.97866e-08
6.41554e-06
1.58878e-07
6.45895e-06
2.30325e-07
6.5077e-06
2.63418e-07
6.55004e-06
2.55862e-07
6.58155e-06
2.23872e-07
6.60447e-06
1.87161e-07
6.62218e-06
1.55538e-07
6.6368e-06
1.30035e-07
6.64946e-06
1.09107e-07
6.66081e-06
9.15311e-08
6.67116e-06
7.64395e-08
6.68064e-06
6.31873e-08
6.68925e-06
5.12636e-08
6.69694e-06
4.03551e-08
6.70362e-06
3.03329e-08
6.70924e-06
2.11156e-08
1.29084e-08
6.71376e-06
5.75263e-06
5.30777e-08
5.77334e-06
1.38167e-07
5.80578e-06
1.97885e-07
5.84319e-06
2.26011e-07
5.87721e-06
2.21836e-07
5.90401e-06
1.97074e-07
5.9244e-06
1.66774e-07
5.94058e-06
1.39357e-07
5.95415e-06
1.16464e-07
5.96598e-06
9.7279e-08
5.97655e-06
8.09544e-08
5.98613e-06
6.68579e-08
5.99485e-06
5.44708e-08
6.00273e-06
4.33893e-08
6.00976e-06
3.33257e-08
6.01589e-06
2.41936e-08
6.02115e-06
1.58565e-08
8.54273e-09
6.02552e-06
7.00577e-06
4.22458e-08
7.03048e-06
1.13462e-07
7.06598e-06
1.62385e-07
7.10587e-06
1.8612e-07
7.14299e-06
1.84714e-07
7.17356e-06
1.665e-07
7.19788e-06
1.42454e-07
7.21776e-06
1.19481e-07
7.23464e-06
9.95799e-08
7.24939e-06
8.25293e-08
7.26253e-06
6.78154e-08
7.27437e-06
5.50216e-08
7.28507e-06
4.37667e-08
7.29471e-06
3.37536e-08
7.3033e-06
2.47298e-08
7.31086e-06
1.66399e-08
7.3174e-06
9.31113e-09
2.97811e-09
7.32297e-06
8.54075e-06
3.48874e-08
8.56551e-06
8.87028e-08
8.60136e-06
1.26533e-07
8.64232e-06
1.45162e-07
8.68191e-06
1.45125e-07
8.71618e-06
1.32225e-07
8.74473e-06
1.13907e-07
8.76878e-06
9.54282e-08
8.78953e-06
7.88305e-08
8.80775e-06
6.43102e-08
8.82395e-06
5.16195e-08
8.83847e-06
4.05043e-08
8.85152e-06
3.07125e-08
8.86323e-06
2.20459e-08
8.87366e-06
1.42962e-08
8.88287e-06
7.42837e-09
8.89093e-06
1.25423e-09
-3.99624e-09
8.8979e-06
1.04078e-05
2.46362e-08
1.04337e-05
6.27917e-08
1.04707e-05
8.95385e-08
1.05129e-05
1.02938e-07
1.05548e-05
1.03188e-07
1.05928e-05
9.42133e-08
1.06259e-05
8.0854e-08
1.06546e-05
6.67537e-08
1.06797e-05
5.3681e-08
1.0702e-05
4.20659e-08
1.07218e-05
3.18243e-08
1.07394e-05
2.28163e-08
1.07553e-05
1.4873e-08
1.07694e-05
7.88103e-09
1.07821e-05
1.68023e-09
1.07932e-05
-3.74711e-09
1.08031e-05
-8.58918e-09
-1.26274e-08
1.08117e-05
1.26941e-05
1.41829e-08
1.27186e-05
3.82197e-08
1.27544e-05
5.37763e-08
1.27964e-05
6.0938e-08
1.28397e-05
5.99017e-08
1.28807e-05
5.31828e-08
1.2918e-05
4.35745e-08
1.29513e-05
3.33961e-08
1.29812e-05
2.38517e-08
1.30078e-05
1.53847e-08
1.30317e-05
7.9636e-09
1.30531e-05
1.47087e-09
1.30721e-05
-4.2138e-09
1.30892e-05
-9.17249e-09
1.31044e-05
-1.35171e-08
1.31179e-05
-1.72547e-08
1.31299e-05
-2.05563e-08
-2.32104e-08
1.31405e-05
1.54606e-05
2.91202e-09
1.54865e-05
1.23429e-08
1.5524e-05
1.63115e-08
1.55686e-05
1.62783e-08
1.56158e-05
1.27875e-08
1.5662e-05
6.9026e-09
1.57055e-05
7.59149e-11
1.57455e-05
-6.56553e-09
1.57817e-05
-1.23806e-08
1.58144e-05
-1.72885e-08
1.58437e-05
-2.13687e-08
1.587e-05
-2.47831e-08
1.58934e-05
-2.7672e-08
1.59144e-05
-3.0112e-08
1.59331e-05
-3.21914e-08
1.59497e-05
-3.38941e-08
1.59645e-05
-3.53606e-08
-3.63898e-08
1.59777e-05
1.88374e-05
-4.26324e-09
1.88652e-05
-1.5456e-08
1.89056e-05
-2.41308e-08
1.89545e-05
-3.25872e-08
1.90076e-05
-4.03633e-08
1.90614e-05
-4.69039e-08
1.91134e-05
-5.19089e-08
1.91621e-05
-5.52166e-08
1.92067e-05
-5.69958e-08
1.9247e-05
-5.76424e-08
1.92833e-05
-5.7594e-08
1.93156e-05
-5.71705e-08
1.93446e-05
-5.65741e-08
1.93703e-05
-5.58844e-08
1.93933e-05
-5.51636e-08
1.94138e-05
-5.43836e-08
1.94321e-05
-5.36396e-08
-5.27331e-08
1.94484e-05
2.29831e-05
-1.46323e-08
2.30138e-05
-4.61281e-08
2.30608e-05
-7.11665e-08
2.3119e-05
-9.07732e-08
2.31836e-05
-1.04948e-07
2.32503e-05
-1.13668e-07
2.33157e-05
-1.1731e-07
2.33772e-05
-1.16682e-07
2.34333e-05
-1.13079e-07
2.34835e-05
-1.07871e-07
2.35281e-05
-1.02168e-07
2.35675e-05
-9.66137e-08
2.36024e-05
-9.14766e-08
2.36334e-05
-8.68124e-08
2.36608e-05
-8.26214e-08
2.36853e-05
-7.88257e-08
2.37071e-05
-7.54427e-08
-7.22752e-08
2.37266e-05
1.6826e-05
-2.64261e-08
1.68527e-05
-7.28673e-08
1.68917e-05
-1.10165e-07
1.69403e-05
-1.39369e-07
1.6995e-05
-1.59592e-07
1.70517e-05
-1.70388e-07
1.71069e-05
-1.72478e-07
1.71577e-05
-1.67489e-07
1.72026e-05
-1.5803e-07
1.72416e-05
-1.46837e-07
1.72752e-05
-1.3578e-07
1.73043e-05
-1.25696e-07
1.73296e-05
-1.16775e-07
1.73517e-05
-1.08946e-07
1.73712e-05
-1.02099e-07
1.73884e-05
-9.60759e-08
1.74038e-05
-9.07923e-08
-8.60151e-08
1.74175e-05
1.46399e-05
-3.31286e-08
1.46656e-05
-9.85506e-08
1.47051e-05
-1.49663e-07
1.47554e-05
-1.8966e-07
1.48129e-05
-2.17111e-07
1.48732e-05
-2.30713e-07
1.49312e-05
-2.30427e-07
1.49827e-05
-2.19027e-07
1.50263e-05
-2.01623e-07
1.50625e-05
-1.83015e-07
1.50926e-05
-1.65889e-07
1.51179e-05
-1.51043e-07
1.51395e-05
-1.38377e-07
1.51582e-05
-1.27578e-07
1.51744e-05
-1.18352e-07
1.51888e-05
-1.10411e-07
1.52015e-05
-1.03538e-07
-9.74555e-08
1.52129e-05
1.27541e-05
-4.19261e-08
1.27777e-05
-1.22113e-07
1.28158e-05
-1.87766e-07
1.28664e-05
-2.40267e-07
1.29265e-05
-2.77204e-07
1.29905e-05
-2.94727e-07
1.30509e-05
-2.90811e-07
1.31021e-05
-2.70209e-07
1.31429e-05
-2.42419e-07
1.31749e-05
-2.15053e-07
1.32004e-05
-1.91376e-07
1.32211e-05
-1.71767e-07
1.32384e-05
-1.5561e-07
1.3253e-05
-1.42225e-07
1.32657e-05
-1.31048e-07
1.32769e-05
-1.21606e-07
1.32869e-05
-1.1352e-07
-1.06446e-07
1.32959e-05
1.10857e-05
-5.53232e-08
1.11111e-05
-1.47565e-07
1.11512e-05
-2.27832e-07
1.12053e-05
-2.94394e-07
1.1272e-05
-3.43881e-07
1.13438e-05
-3.66521e-07
1.14091e-05
-3.56117e-07
1.14609e-05
-3.21989e-07
1.14992e-05
-2.80676e-07
1.15271e-05
-2.43019e-07
1.1548e-05
-2.12281e-07
1.15642e-05
-1.87945e-07
1.15772e-05
-1.68612e-07
1.15881e-05
-1.53081e-07
1.15974e-05
-1.40416e-07
1.16057e-05
-1.29895e-07
1.16132e-05
-1.20964e-07
-1.13212e-07
1.16199e-05
9.65477e-06
-6.42933e-08
9.67617e-06
-1.68967e-07
9.71222e-06
-2.63881e-07
9.76496e-06
-3.47134e-07
9.83685e-06
-4.15773e-07
9.91602e-06
-4.45686e-07
9.98458e-06
-4.2468e-07
1.00346e-05
-3.71996e-07
1.00679e-05
-3.1395e-07
1.00896e-05
-2.6477e-07
1.01044e-05
-2.27046e-07
1.0115e-05
-1.98605e-07
1.01233e-05
-1.76866e-07
1.01302e-05
-1.59942e-07
1.01362e-05
-1.46443e-07
1.01417e-05
-1.35384e-07
1.01467e-05
-1.26029e-07
-1.17917e-07
1.01514e-05
8.40463e-06
-6.80852e-08
8.42332e-06
-1.87666e-07
8.45429e-06
-2.94845e-07
8.50495e-06
-3.97795e-07
8.58408e-06
-4.94906e-07
8.67227e-06
-5.33869e-07
8.74295e-06
-4.95367e-07
8.78893e-06
-4.17974e-07
8.81532e-06
-3.40339e-07
8.82994e-06
-2.79389e-07
8.83851e-06
-2.35619e-07
8.84404e-06
-2.04133e-07
8.84813e-06
-1.8095e-07
8.85164e-06
-1.63458e-07
8.85493e-06
-1.49732e-07
8.85814e-06
-1.38591e-07
8.86122e-06
-1.29112e-07
-1.20859e-07
8.86416e-06
7.31425e-06
-7.37102e-08
7.3311e-06
-2.04513e-07
7.35584e-06
-3.19585e-07
7.40429e-06
-4.46249e-07
7.49337e-06
-5.8398e-07
7.58998e-06
-6.30479e-07
7.66034e-06
-5.65732e-07
7.70048e-06
-4.58112e-07
7.72026e-06
-3.60125e-07
7.7288e-06
-2.87929e-07
7.73158e-06
-2.38393e-07
7.7316e-06
-2.04155e-07
7.7306e-06
-1.79952e-07
7.72947e-06
-1.62325e-07
7.72835e-06
-1.48609e-07
7.72726e-06
-1.37506e-07
7.72601e-06
-1.27861e-07
-1.19542e-07
7.72469e-06
6.37352e-06
-7.60344e-08
6.3845e-06
-2.15493e-07
6.39836e-06
-3.33447e-07
6.44595e-06
-4.93831e-07
6.55213e-06
-6.90161e-07
6.65461e-06
-7.32966e-07
6.71768e-06
-6.28802e-07
6.74408e-06
-4.8451e-07
6.74896e-06
-3.65005e-07
6.7415e-06
-2.80467e-07
6.72634e-06
-2.23235e-07
6.70729e-06
-1.85109e-07
6.68684e-06
-1.595e-07
6.66587e-06
-1.41349e-07
6.64453e-06
-1.27272e-07
6.62285e-06
-1.15824e-07
6.60072e-06
-1.05735e-07
-9.71721e-08
6.57835e-06
5.55032e-06
-8.64932e-08
5.559e-06
-2.24176e-07
5.55483e-06
-3.29272e-07
5.60934e-06
-5.48349e-07
5.73077e-06
-8.11586e-07
5.79108e-06
-7.93278e-07
5.77686e-06
-6.14583e-07
5.71897e-06
-4.26616e-07
5.64294e-06
-2.88979e-07
5.559e-06
-1.96527e-07
5.47354e-06
-1.37773e-07
5.39107e-06
-1.02635e-07
5.3134e-06
-8.18316e-08
5.24041e-06
-6.83598e-08
5.17191e-06
-5.8772e-08
5.10757e-06
-5.14881e-08
5.04731e-06
-4.54754e-08
-4.04793e-08
4.99062e-06
4.84046e-06
-1.0684e-07
4.84455e-06
-2.28272e-07
4.80743e-06
-2.92145e-07
4.7941e-06
-5.35025e-07
4.703e-06
-7.20481e-07
4.4673e-06
-5.57586e-07
4.19648e-06
-3.43757e-07
3.956e-06
-1.86142e-07
3.75891e-06
-9.18853e-08
3.60026e-06
-3.78759e-08
3.47455e-06
-1.20653e-08
3.37495e-06
-3.03399e-09
3.29446e-06
-1.34319e-09
3.22812e-06
-2.01638e-09
3.17256e-06
-3.21468e-09
3.12522e-06
-4.1476e-09
3.08456e-06
-4.8168e-09
-5.03271e-09
3.04912e-06
4.09564e-06
3.86737e-06
3.57522e-06
3.0402e-06
2.31972e-06
1.76213e-06
1.41837e-06
1.23223e-06
1.14035e-06
1.10247e-06
1.0904e-06
1.08737e-06
1.08603e-06
1.08401e-06
1.0808e-06
1.07665e-06
1.07183e-06
1.0668e-06
-5.37661e-09
5.37661e-09
-9.52652e-09
4.14991e-09
-4.96332e-09
-4.5632e-09
9.848e-09
-1.48113e-08
3.19244e-08
-2.20764e-08
5.77204e-08
-2.5796e-08
8.44868e-08
-2.67664e-08
1.10397e-07
-2.59099e-08
1.34333e-07
-2.39363e-08
1.55648e-07
-2.13151e-08
1.73999e-07
-1.83514e-08
1.89242e-07
-1.52427e-08
2.0136e-07
-1.21174e-08
2.10419e-07
-9.0598e-09
2.16542e-07
-6.12248e-09
2.19852e-07
-3.30991e-09
2.20527e-07
-6.75327e-10
2.18816e-07
1.71152e-09
2.15029e-07
3.78644e-09
2.09553e-07
5.47632e-09
2.0285e-07
6.70236e-09
1.95477e-07
7.37336e-09
1.88085e-07
7.39183e-09
1.81419e-07
6.66654e-09
1.76283e-07
5.13524e-09
1.73443e-07
2.84047e-09
1.73538e-07
-9.50657e-11
1.7687e-07
-3.33199e-09
1.83191e-07
-6.32122e-09
1.91567e-07
-8.37559e-09
2.00766e-07
-9.1995e-09
2.09872e-07
-9.1054e-09
2.18425e-07
-8.55328e-09
2.26308e-07
-7.88335e-09
2.33573e-07
-7.26466e-09
2.40319e-07
-6.74574e-09
2.46639e-07
-6.32005e-09
2.52593e-07
-5.95448e-09
2.58208e-07
-5.6147e-09
2.63491e-07
-5.28313e-09
2.6845e-07
-4.95899e-09
2.73084e-07
-4.63398e-09
2.77345e-07
-4.26112e-09
2.81089e-07
-3.7435e-09
2.84024e-07
-2.93483e-09
2.85714e-07
-1.69036e-09
2.8569e-07
2.41283e-11
2.83357e-07
2.33323e-09
2.77688e-07
5.66828e-09
2.67014e-07
1.06743e-08
2.48925e-07
1.8089e-08
2.20862e-07
2.80635e-08
1.80639e-07
4.02222e-08
1.27319e-07
5.33205e-08
6.25225e-08
6.47963e-08
-9.74161e-09
7.22641e-08
-8.5063e-08
7.53214e-08
-1.59484e-07
7.44213e-08
-2.30824e-07
7.134e-08
-2.98769e-07
6.79447e-08
-3.63368e-07
6.45988e-08
-4.24726e-07
6.13582e-08
-4.82996e-07
5.82704e-08
-5.38358e-07
5.53618e-08
-5.90994e-07
5.26358e-08
-6.41076e-07
5.00816e-08
-6.8877e-07
4.76946e-08
-7.34237e-07
4.5467e-08
-7.77623e-07
4.33862e-08
-8.1906e-07
4.14366e-08
-8.58663e-07
3.96027e-08
-8.96533e-07
3.78701e-08
-9.32759e-07
3.62264e-08
-9.67421e-07
3.46622e-08
-1.00059e-06
3.31697e-08
-1.03234e-06
3.17442e-08
-1.06272e-06
3.03812e-08
-1.09179e-06
2.90753e-08
-1.11961e-06
2.7822e-08
-1.14623e-06
2.6617e-08
-1.17169e-06
2.54569e-08
-1.19603e-06
2.43385e-08
-1.21929e-06
2.32591e-08
-1.2415e-06
2.22158e-08
-1.26271e-06
2.12053e-08
-1.28293e-06
2.02244e-08
-1.3022e-06
1.92697e-08
-1.32054e-06
1.83379e-08
-1.33796e-06
1.74256e-08
-1.35449e-06
1.653e-08
-1.37014e-06
1.56483e-08
-1.38492e-06
1.47782e-08
-1.39884e-06
1.39171e-08
-1.4119e-06
1.3063e-08
-1.42411e-06
1.22138e-08
-1.43548e-06
1.13678e-08
-1.44601e-06
1.05234e-08
-1.45568e-06
9.67908e-09
-1.46452e-06
8.83365e-09
-1.4725e-06
7.98542e-09
-1.47964e-06
7.13251e-09
-1.48591e-06
6.27332e-09
-1.49132e-06
5.40792e-09
-1.49585e-06
4.53608e-09
-1.49951e-06
3.65946e-09
-1.50229e-06
2.77922e-09
-1.50419e-06
1.89794e-09
-1.50521e-06
1.01586e-09
-1.50534e-06
1.34016e-10
-1.50459e-06
-7.47631e-10
-1.50296e-06
-1.629e-09
-1.50046e-06
-2.50705e-09
-1.49708e-06
-3.38087e-09
-1.49282e-06
-4.25089e-09
-1.48771e-06
-5.11674e-09
-1.48173e-06
-5.97993e-09
-1.47489e-06
-6.84095e-09
-1.46719e-06
-7.69998e-09
-1.45863e-06
-8.55831e-09
-1.44921e-06
-9.41573e-09
-1.43894e-06
-1.02722e-08
-1.42781e-06
-1.11275e-08
-1.41583e-06
-1.19816e-08
-1.403e-06
-1.28341e-08
-1.38931e-06
-1.3685e-08
-1.37478e-06
-1.45345e-08
-1.3594e-06
-1.53822e-08
-1.34317e-06
-1.62281e-08
-1.3261e-06
-1.70722e-08
-1.30818e-06
-1.79144e-08
-1.28943e-06
-1.87549e-08
-1.26983e-06
-1.9594e-08
-1.2494e-06
-2.04319e-08
-1.22813e-06
-2.12685e-08
-1.20603e-06
-2.21039e-08
-1.18309e-06
-2.29383e-08
-1.15932e-06
-2.37716e-08
-1.13471e-06
-2.46039e-08
-1.10928e-06
-2.54352e-08
-1.08301e-06
-2.62653e-08
-1.05592e-06
-2.70942e-08
-1.028e-06
-2.79215e-08
-9.99251e-07
-2.87473e-08
-9.69679e-07
-2.95713e-08
-9.39286e-07
-3.03932e-08
-9.08073e-07
-3.12128e-08
-8.76044e-07
-3.20294e-08
-8.43201e-07
-3.28426e-08
-8.0955e-07
-3.36517e-08
-7.75094e-07
-3.44558e-08
-7.3984e-07
-3.52539e-08
-7.03795e-07
-3.60448e-08
-6.66969e-07
-3.68266e-08
-6.29372e-07
-3.75972e-08
-5.91018e-07
-3.83536e-08
-5.51925e-07
-3.90929e-08
-5.12114e-07
-3.9811e-08
-4.71612e-07
-4.05018e-08
-4.30453e-07
-4.11594e-08
-3.8868e-07
-4.17733e-08
-3.46351e-07
-4.23282e-08
-3.03535e-07
-4.28164e-08
-2.60305e-07
-4.32301e-08
-2.16731e-07
-4.3574e-08
-1.72888e-07
-4.38428e-08
-1.28862e-07
-4.40264e-08
-8.47448e-08
-4.4117e-08
-4.06452e-08
-4.40996e-08
3.31294e-09
-4.39581e-08
4.69879e-08
-4.36749e-08
9.02072e-08
-4.32194e-08
1.3273e-07
-4.25226e-08
1.74249e-07
-4.15187e-08
2.14483e-07
-4.02342e-08
2.53045e-07
-3.85625e-08
2.89514e-07
-3.64686e-08
3.22103e-07
-3.2589e-08
3.51664e-07
-2.95612e-08
3.68332e-07
-1.66674e-08
1.20435e-09
3.67127e-07
1.40845e-09
3.96816e-09
1.27514e-08
-7.19303e-09
3.53552e-08
-2.7167e-08
6.35824e-08
-4.30385e-08
9.20969e-08
-5.0591e-08
1.18202e-07
-5.19007e-08
1.41059e-07
-4.96235e-08
1.60659e-07
-4.55107e-08
1.77273e-07
-4.05502e-08
1.91195e-07
-3.52367e-08
2.02673e-07
-2.98299e-08
2.11913e-07
-2.44823e-08
2.19085e-07
-1.92895e-08
2.24342e-07
-1.43162e-08
2.27825e-07
-9.60627e-09
2.29702e-07
-5.18618e-09
2.30129e-07
-1.10285e-09
2.2925e-07
2.5908e-09
2.27213e-07
5.82346e-09
2.24181e-07
8.50776e-09
2.20345e-07
1.05389e-08
2.15918e-07
1.17998e-08
2.11142e-07
1.21682e-08
2.0627e-07
1.15383e-08
2.01545e-07
9.86083e-09
1.97174e-07
7.21068e-09
1.93153e-07
3.92635e-09
1.89229e-07
5.92243e-10
1.84955e-07
-2.04791e-09
1.7999e-07
-3.41063e-09
1.74326e-07
-3.53471e-09
1.68135e-07
-2.91433e-09
1.61539e-07
-1.95764e-09
1.54534e-07
-8.78374e-10
1.47006e-07
2.63469e-10
1.38762e-07
1.49768e-09
1.29545e-07
2.89714e-09
1.19024e-07
4.56652e-09
1.06805e-07
6.60418e-09
9.24405e-08
9.08167e-09
7.54137e-08
1.20678e-08
5.51105e-08
1.56692e-08
3.07931e-08
2.00563e-08
1.59423e-09
2.54553e-08
-3.34727e-08
3.21321e-08
-7.54064e-08
4.02434e-08
-1.25143e-07
4.97611e-08
-1.83343e-07
6.05327e-08
-2.50056e-07
7.23817e-08
-3.24474e-07
8.50916e-08
-4.04666e-07
9.82819e-08
-4.8793e-07
1.11327e-07
-5.71293e-07
1.23586e-07
-6.5218e-07
1.34207e-07
-7.29648e-07
1.42263e-07
-8.04408e-07
1.47025e-07
-8.77439e-07
1.48352e-07
-9.49717e-07
1.46699e-07
-1.02128e-06
1.42908e-07
-1.09135e-06
1.3801e-07
-1.15934e-06
1.32587e-07
-1.22496e-06
1.26978e-07
-1.28807e-06
1.21385e-07
-1.34863e-06
1.15922e-07
-1.40665e-06
1.10656e-07
-1.46218e-06
1.05611e-07
-1.51528e-06
1.00796e-07
-1.56603e-06
9.62104e-08
-1.61449e-06
9.18447e-08
-1.66074e-06
8.76862e-08
-1.70485e-06
8.37199e-08
-1.74691e-06
7.99311e-08
-1.78699e-06
7.63057e-08
-1.82516e-06
7.28288e-08
-1.86147e-06
6.94844e-08
-1.89599e-06
6.62598e-08
-1.92875e-06
6.31455e-08
-1.95981e-06
6.0133e-08
-1.9892e-06
5.72148e-08
-2.01697e-06
5.43844e-08
-2.04315e-06
5.16355e-08
-2.06777e-06
4.89621e-08
-2.09087e-06
4.63585e-08
-2.11248e-06
4.38191e-08
-2.13261e-06
4.13381e-08
-2.15129e-06
3.891e-08
-2.16855e-06
3.65297e-08
-2.18441e-06
3.41915e-08
-2.19887e-06
3.18899e-08
-2.21196e-06
2.96197e-08
-2.22369e-06
2.7376e-08
-2.23407e-06
2.51544e-08
-2.2431e-06
2.29509e-08
-2.2508e-06
2.07618e-08
-2.25717e-06
1.85838e-08
-2.26222e-06
1.6414e-08
-2.26594e-06
1.42499e-08
-2.26835e-06
1.20892e-08
-2.26945e-06
9.93017e-09
-2.26924e-06
7.77236e-09
-2.26772e-06
5.61398e-09
-2.2649e-06
3.45525e-09
-2.26079e-06
1.29647e-09
-2.25539e-06
-8.62158e-10
-2.24871e-06
-3.02021e-09
-2.24075e-06
-5.1775e-09
-2.23152e-06
-7.3322e-09
-2.22102e-06
-9.48429e-09
-2.20926e-06
-1.16322e-08
-2.19623e-06
-1.37754e-08
-2.18194e-06
-1.59132e-08
-2.16641e-06
-1.80437e-08
-2.14962e-06
-2.01656e-08
-2.1316e-06
-2.2278e-08
-2.11233e-06
-2.43796e-08
-2.09184e-06
-2.64696e-08
-2.07014e-06
-2.8547e-08
-2.04723e-06
-3.06106e-08
-2.02312e-06
-3.26601e-08
-1.99785e-06
-3.46946e-08
-1.9714e-06
-3.67132e-08
-1.94382e-06
-3.87152e-08
-1.9151e-06
-4.07e-08
-1.88527e-06
-4.26667e-08
-1.85434e-06
-4.46149e-08
-1.82233e-06
-4.65441e-08
-1.78925e-06
-4.84537e-08
-1.75514e-06
-5.0343e-08
-1.72e-06
-5.22117e-08
-1.68386e-06
-5.40592e-08
-1.64672e-06
-5.58856e-08
-1.60863e-06
-5.76909e-08
-1.56959e-06
-5.94749e-08
-1.52962e-06
-6.12375e-08
-1.48874e-06
-6.29787e-08
-1.44698e-06
-6.46986e-08
-1.40436e-06
-6.63971e-08
-1.36089e-06
-6.8074e-08
-1.31659e-06
-6.97291e-08
-1.27149e-06
-7.13621e-08
-1.22562e-06
-7.29731e-08
-1.17898e-06
-7.45617e-08
-1.13159e-06
-7.61281e-08
-1.08349e-06
-7.7672e-08
-1.03469e-06
-7.91932e-08
-9.85215e-07
-8.06915e-08
-9.35078e-07
-8.21664e-08
-8.84303e-07
-8.36175e-08
-8.32911e-07
-8.5044e-08
-7.80922e-07
-8.64453e-08
-7.28356e-07
-8.782e-08
-6.75234e-07
-8.91665e-08
-6.21578e-07
-9.04823e-08
-5.67411e-07
-9.17644e-08
-5.12756e-07
-9.30084e-08
-4.57639e-07
-9.42096e-08
-4.02089e-07
-9.53613e-08
-3.46135e-07
-9.64563e-08
-2.8981e-07
-9.74837e-08
-2.33152e-07
-9.84313e-08
-1.76194e-07
-9.92865e-08
-1.18973e-07
-1.00037e-07
-6.15275e-08
-1.00676e-07
-3.90373e-09
-1.01198e-07
5.38484e-08
-1.01595e-07
1.11675e-07
-1.01853e-07
1.69513e-07
-1.01955e-07
2.27288e-07
-1.01875e-07
2.84914e-07
-1.01583e-07
3.42281e-07
-1.01042e-07
3.99261e-07
-1.002e-07
4.55725e-07
-9.89862e-08
5.11519e-07
-9.73134e-08
5.66428e-07
-9.51426e-08
6.20071e-07
-9.22061e-08
6.72027e-07
-8.84242e-08
7.21361e-07
-8.19233e-08
7.66389e-07
-7.45894e-08
8.06291e-07
-5.65691e-08
-2.32183e-08
8.30714e-07
6.64491e-09
-2.67675e-09
3.21094e-08
-3.26575e-08
6.44629e-08
-5.95206e-08
9.29313e-08
-7.15069e-08
1.14851e-07
-7.25111e-08
1.31209e-07
-6.82585e-08
1.43556e-07
-6.19699e-08
1.53081e-07
-5.50361e-08
1.60526e-07
-4.79947e-08
1.66335e-07
-4.10455e-08
1.70773e-07
-3.42685e-08
1.73998e-07
-2.77067e-08
1.76101e-07
-2.1393e-08
1.77146e-07
-1.53606e-08
1.77179e-07
-9.6393e-09
1.76256e-07
-4.26376e-09
1.74432e-07
7.212e-10
1.7177e-07
5.25332e-09
1.68335e-07
9.25758e-09
1.64201e-07
1.26419e-08
1.59439e-07
1.53017e-08
1.54112e-07
1.7126e-08
1.48267e-07
1.80136e-08
1.41906e-07
1.78996e-08
1.34966e-07
1.68011e-08
1.27292e-07
1.48846e-08
1.18636e-07
1.25824e-08
1.08674e-07
1.0554e-08
9.72399e-08
9.38604e-09
8.44989e-08
9.3303e-09
7.07194e-08
1.02448e-08
5.59326e-08
1.18725e-08
3.99588e-08
1.40162e-08
2.24796e-08
1.66009e-08
3.08684e-09
1.96562e-08
-1.86944e-08
2.3279e-08
-4.33967e-08
2.75994e-08
-7.15859e-08
3.27557e-08
-1.03858e-07
3.88763e-08
-1.40842e-07
4.60661e-08
-1.83168e-07
5.43933e-08
-2.31391e-07
6.38926e-08
-2.85898e-07
7.45628e-08
-3.46775e-07
8.63323e-08
-4.13681e-07
9.90388e-08
-4.8583e-07
1.12392e-07
-5.62026e-07
1.25957e-07
-6.4076e-07
1.39267e-07
-7.20338e-07
1.51959e-07
-7.99068e-07
1.63822e-07
-8.75508e-07
1.74722e-07
-9.4866e-07
1.84479e-07
-1.01789e-06
1.92816e-07
-1.08301e-06
1.99331e-07
-1.14437e-06
2.03621e-07
-1.20277e-06
2.05421e-07
-1.25914e-06
2.04726e-07
-1.31428e-06
2.01839e-07
-1.36864e-06
1.97271e-07
-1.42219e-06
1.91557e-07
-1.47474e-06
1.85133e-07
-1.52609e-06
1.78326e-07
-1.57607e-06
1.71371e-07
-1.62457e-06
1.64421e-07
-1.67149e-06
1.57577e-07
-1.71678e-06
1.50901e-07
-1.76041e-06
1.44424e-07
-1.80236e-06
1.38161e-07
-1.84263e-06
1.32115e-07
-1.88122e-06
1.26282e-07
-1.91816e-06
1.20651e-07
-1.95344e-06
1.15212e-07
-1.98708e-06
1.09951e-07
-2.01911e-06
1.04854e-07
-2.04953e-06
9.99074e-08
-2.07837e-06
9.5101e-08
-2.10565e-06
9.04251e-08
-2.13139e-06
8.58713e-08
-2.15561e-06
8.14324e-08
-2.17832e-06
7.71014e-08
-2.19956e-06
7.28717e-08
-2.21933e-06
6.87369e-08
-2.23767e-06
6.46902e-08
-2.25457e-06
6.07249e-08
-2.27007e-06
5.68341e-08
-2.28417e-06
5.30106e-08
-2.29689e-06
4.92475e-08
-2.30823e-06
4.55373e-08
-2.31822e-06
4.18732e-08
-2.32684e-06
3.82486e-08
-2.33413e-06
3.46571e-08
-2.34006e-06
3.10932e-08
-2.34467e-06
2.75521e-08
-2.34793e-06
2.40292e-08
-2.34987e-06
2.05209e-08
-2.35048e-06
1.70233e-08
-2.34976e-06
1.35341e-08
-2.34772e-06
1.00504e-08
-2.34437e-06
6.57127e-09
-2.33969e-06
3.09822e-09
-2.33371e-06
-3.71663e-10
-2.32641e-06
-3.83934e-09
-2.31781e-06
-7.30359e-09
-2.30791e-06
-1.0764e-08
-2.29671e-06
-1.42219e-08
-2.28421e-06
-1.76747e-08
-2.27042e-06
-2.11235e-08
-2.25534e-06
-2.45664e-08
-2.23897e-06
-2.80009e-08
-2.22132e-06
-3.14254e-08
-2.20239e-06
-3.48379e-08
-2.1822e-06
-3.8236e-08
-2.16075e-06
-4.16172e-08
-2.13805e-06
-4.49795e-08
-2.11411e-06
-4.83205e-08
-2.08894e-06
-5.16379e-08
-2.06256e-06
-5.49295e-08
-2.03497e-06
-5.81932e-08
-2.00621e-06
-6.14274e-08
-1.97627e-06
-6.46303e-08
-1.94518e-06
-6.78004e-08
-1.91296e-06
-7.09363e-08
-1.87963e-06
-7.40365e-08
-1.84519e-06
-7.70997e-08
-1.80968e-06
-8.01249e-08
-1.77312e-06
-8.31111e-08
-1.73551e-06
-8.60573e-08
-1.69689e-06
-8.89623e-08
-1.65728e-06
-9.18252e-08
-1.61669e-06
-9.46452e-08
-1.57516e-06
-9.7422e-08
-1.53269e-06
-1.00155e-07
-1.48932e-06
-1.02845e-07
-1.44507e-06
-1.0549e-07
-1.39996e-06
-1.08092e-07
-1.35401e-06
-1.10649e-07
-1.30724e-06
-1.13161e-07
-1.25969e-06
-1.15629e-07
-1.21136e-06
-1.18052e-07
-1.1623e-06
-1.2043e-07
-1.11251e-06
-1.22762e-07
-1.06202e-06
-1.2505e-07
-1.01086e-06
-1.27292e-07
-9.5904e-07
-1.29488e-07
-9.06593e-07
-1.3164e-07
-8.53539e-07
-1.33746e-07
-7.99898e-07
-1.35807e-07
-7.45694e-07
-1.37822e-07
-6.90948e-07
-1.3979e-07
-6.35681e-07
-1.41712e-07
-5.79914e-07
-1.43586e-07
-5.2367e-07
-1.4541e-07
-4.6697e-07
-1.47182e-07
-4.09837e-07
-1.48898e-07
-3.52292e-07
-1.50553e-07
-2.94361e-07
-1.52141e-07
-2.36068e-07
-1.53654e-07
-1.77439e-07
-1.55086e-07
-1.18499e-07
-1.56423e-07
-5.92747e-08
-1.57656e-07
2.10408e-10
-1.58772e-07
5.99322e-08
-1.59759e-07
1.19861e-07
-1.60605e-07
1.79963e-07
-1.61299e-07
2.40197e-07
-1.61829e-07
3.00521e-07
-1.62177e-07
3.60886e-07
-1.6232e-07
4.21238e-07
-1.62226e-07
4.81511e-07
-1.61857e-07
5.41632e-07
-1.61163e-07
6.01518e-07
-1.60085e-07
6.61078e-07
-1.58547e-07
7.20195e-07
-1.5643e-07
7.78671e-07
-1.53619e-07
8.36226e-07
-1.4976e-07
8.92417e-07
-1.44615e-07
9.46848e-07
-1.36355e-07
9.98102e-07
-1.25844e-07
1.04671e-06
-1.05179e-07
-6.56678e-08
1.08916e-06
1.3883e-08
-1.65597e-08
4.56781e-08
-6.44526e-08
7.32925e-08
-8.7135e-08
9.11415e-08
-8.93558e-08
1.02303e-07
-8.36731e-08
1.09831e-07
-7.57864e-08
1.15312e-07
-6.74505e-08
1.19427e-07
-5.91517e-08
1.22461e-07
-5.10284e-08
1.24539e-07
-4.31237e-08
1.25726e-07
-3.54548e-08
1.26055e-07
-2.80358e-08
1.25547e-07
-2.08849e-08
1.24215e-07
-1.40287e-08
1.22069e-07
-7.49367e-09
1.19122e-07
-1.31646e-09
1.1539e-07
4.45267e-09
1.10894e-07
9.74958e-09
1.05652e-07
1.44994e-08
9.9679e-08
1.86152e-08
9.29806e-08
2.20001e-08
8.55443e-08
2.45623e-08
7.73168e-08
2.62411e-08
6.81762e-08
2.70402e-08
5.79079e-08
2.70694e-08
4.62014e-08
2.65911e-08
3.27572e-08
2.60266e-08
1.74253e-08
2.58858e-08
2.02055e-10
2.66093e-08
-1.88612e-08
2.83936e-08
-3.98411e-08
3.12247e-08
-6.29804e-08
3.50118e-08
-8.8655e-08
3.96908e-08
-1.17317e-07
4.52633e-08
-1.49454e-07
5.17932e-08
-1.85551e-07
5.93752e-08
-2.26047e-07
6.80957e-08
-2.71296e-07
7.80044e-08
-3.21513e-07
8.90938e-08
-3.76737e-07
1.0129e-07
-4.3678e-07
1.14437e-07
-5.01176e-07
1.28288e-07
-5.69159e-07
1.42546e-07
-6.39709e-07
1.56883e-07
-7.11606e-07
1.70935e-07
-7.83561e-07
1.84347e-07
-8.54424e-07
1.9682e-07
-9.23303e-07
2.08146e-07
-9.89564e-07
2.18221e-07
-1.05275e-06
2.2701e-07
-1.11255e-06
2.34517e-07
-1.16878e-06
2.40716e-07
-1.22148e-06
2.45512e-07
-1.2709e-06
2.48751e-07
-1.31754e-06
2.50256e-07
-1.36203e-06
2.49912e-07
-1.40504e-06
2.47741e-07
-1.44713e-06
2.43923e-07
-1.48861e-06
2.38758e-07
-1.52963e-06
2.32575e-07
-1.57018e-06
2.25678e-07
-1.61017e-06
2.1832e-07
-1.6495e-06
2.10703e-07
-1.68806e-06
2.02978e-07
-1.72574e-06
1.95252e-07
-1.76243e-06
1.87598e-07
-1.79807e-06
1.80065e-07
-1.83259e-06
1.72679e-07
-1.86593e-06
1.65457e-07
-1.89806e-06
1.58403e-07
-1.92892e-06
1.51516e-07
-1.9585e-06
1.44792e-07
-1.98677e-06
1.38224e-07
-2.01372e-06
1.31804e-07
-2.03934e-06
1.25523e-07
-2.06361e-06
1.19376e-07
-2.08655e-06
1.13357e-07
-2.10814e-06
1.0746e-07
-2.12838e-06
1.0168e-07
-2.1473e-06
9.60131e-08
-2.16488e-06
9.0453e-08
-2.18113e-06
8.49944e-08
-2.19608e-06
7.96313e-08
-2.20971e-06
7.43568e-08
-2.22204e-06
6.91635e-08
-2.23307e-06
6.40436e-08
-2.24281e-06
5.89891e-08
-2.25127e-06
5.39918e-08
-2.25844e-06
4.90437e-08
-2.26433e-06
4.41373e-08
-2.26893e-06
3.92656e-08
-2.27226e-06
3.44225e-08
-2.27431e-06
2.96023e-08
-2.27508e-06
2.48004e-08
-2.27458e-06
2.00126e-08
-2.27279e-06
1.52355e-08
-2.26972e-06
1.04665e-08
-2.26537e-06
5.70424e-09
-2.25975e-06
9.47491e-10
-2.25285e-06
-3.80547e-09
-2.24466e-06
-8.55374e-09
-2.23521e-06
-1.32985e-08
-2.22447e-06
-1.80397e-08
-2.21246e-06
-2.27761e-08
-2.19917e-06
-2.75078e-08
-2.18461e-06
-3.2233e-08
-2.16879e-06
-3.69501e-08
-2.1517e-06
-4.16567e-08
-2.13335e-06