/*--------------------------------*- C++ -*----------------------------------*\
| =========                 |                                                 |
| \\      /  F ield         | OpenFOAM: The Open Source CFD Toolbox           |
|  \\    /   O peration     | Version:  2312                                  |
|   \\  /    A nd           | Website:  www.openfoam.com                      |
|    \\/     M anipulation  |                                                 |
\*---------------------------------------------------------------------------*/
FoamFile
{
    version     2.0;
    format      ascii;
    arch        "LSB;label=32;scalar=64";
    class       volScalarField;
    location    "0.2";
    object      Pk;
}
// * * * * * * * * * * * * * * * * * * * * * * * * * * * * * * * * * * * * * //

dimensions      [0 2 -3 0 0 0 0];

internalField   nonuniform List<scalar> 
12225
(
6090.36
18231.8
123670
81779.3
48264.9
28320.3
20286.5
16964.9
15671
15203.8
14955.7
14814.6
14650.7
14533.8
14522.7
14337.4
14932.9
13943.6
110.436
24.7132
1778.92
6171.53
9323.16
10814
11348.6
10881.7
10240.5
9674.04
9192.64
8817.76
8492.67
8243.43
8000.08
7859.64
7591.63
7618.05
46.2336
25.7991
15.528
143.975
483.472
909.198
1426.1
1879.32
2253.34
2571.44
2839.87
3046.6
3155.38
3203.21
3240.8
3255.2
3252.15
3255.08
24.488
28.9327
28.959
10.6716
7.59392
25.5696
62.7497
112.586
171.063
243.235
321.898
409.959
489.041
567.277
628.119
691.791
733.878
794.294
33.2283
34.3262
35.7482
26.0078
7.90303
1.88413
0.109669
0.408863
2.65225
7.20158
14.2077
23.2843
33.6055
44.4833
55.0891
66.2851
75.3945
88.5962
33.3859
36.5209
31.5861
25.95
16.8498
8.44124
4.39383
1.8755
0.803024
0.37552
0.1607
0.0392681
0.0791959
0.330241
0.693753
1.30022
1.78965
2.89214
26.6428
28.2892
22.3758
24.247
21.6349
14.1029
6.69165
2.72861
1.41529
1.1128
1.0686
1.0584
1.10438
1.06709
1.02283
0.899566
0.820221
0.583071
6.54427
1.87528
14.4089
24.0579
24.5805
18.8692
9.95479
4.48884
2.43151
1.75244
1.57199
1.63024
1.8348
2.00997
2.15634
2.23937
2.27985
2.09531
3.34366
5.26891
18.3029
25.5437
26.1429
21.7029
15.3666
8.21697
4.80263
3.182
2.49552
2.34332
2.47339
2.66441
2.86298
3.02589
3.11131
2.96248
2.45436
2.30265
15.8208
21.9761
23.2993
21.8344
18.1696
12.7663
8.14765
5.37126
3.91825
3.35854
3.28385
3.39489
3.56094
3.70194
3.73853
3.54853
5.02921
11.0955
11.6435
15.1058
17.334
18.3954
17.5581
14.593
10.3162
7.12946
5.19625
4.31138
4.06878
4.11609
4.2395
4.30816
4.22699
3.92895
32.3654
17.61
8.52414
6.44838
10.3069
13.3444
14.0757
12.4416
9.74525
7.22481
5.51173
4.69172
4.4981
4.59111
4.7126
4.70768
4.48935
4.06067
15.5801
14.3249
4.44065
1.81114
4.62378
7.38787
8.61834
8.27798
7.00299
5.58975
4.58017
4.17888
4.26035
4.53849
4.73978
4.70985
4.38601
3.85258
18.6242
7.27471
1.74617
1.19555
2.59524
3.9433
4.76697
4.76136
4.15285
3.38573
2.84984
2.76097
3.07528
3.54808
3.88852
3.92762
3.60604
3.0751
27.7376
12.1877
10.2409
6.27787
2.38413
0.809164
0.783301
1.19421
1.42283
1.29234
1.02277
0.960389
1.26114
1.78751
2.24662
2.42137
2.23192
1.83496
5.96747
0.290026
2.69415
1.31185
0.254863
0.293691
0.419349
0.402896
0.304194
0.234559
0.226402
0.384776
0.801705
1.36532
1.8052
1.92404
1.69068
1.28367
14.8039
4.19257
12.8269
17.3033
15.199
9.62887
5.44419
2.68806
1.1926
0.703956
0.824936
1.31597
2.00818
2.66577
3.04301
3.02461
2.66345
2.14766
25.9169
0.880048
3.99649
9.00789
9.95343
6.52024
3.49602
1.95543
1.16318
0.873763
0.996263
1.35495
1.82956
2.33635
2.75671
2.97334
2.95631
2.81079
2.63905
1.10141
0.234837
0.394033
0.511445
2.98945
4.36522
3.36243
2.0738
1.45349
1.20749
1.01373
0.781525
0.555255
0.412688
0.369998
0.39014
0.494591
7.363
0.447195
0.309259
0.539747
3.17299
5.36891
6.39561
6.55497
5.93476
5.0015
4.12961
3.30839
2.45046
1.61834
0.957548
0.546687
0.345895
0.263509
8.72066
0.721747
0.729226
0.0790965
0.378834
1.23555
2.94605
5.21524
6.75502
7.00396
6.36028
5.31561
4.14389
3.02
2.04909
1.31834
0.837338
0.621758
19.5744
4.12501
1.81612
1.64665
1.06928
1.18803
3.00722
5.55717
7.47701
8.23845
7.99454
7.13004
5.93362
4.61633
3.35214
2.29502
1.48821
0.99663
12.9415
6.09436
4.58986
6.51473
4.73913
4.25209
6.80567
9.76014
11.402
11.5881
10.6908
9.11698
7.2232
5.39967
3.86582
2.70178
1.85068
1.30095
18.0325
5.14919
10.1614
13.3728
10.7697
8.57628
11.4665
15.692
16.6451
15.9168
12.8484
9.91643
7.26904
5.15335
3.60428
2.58294
1.90016
1.46641
15.9663
5.3785
7.60186
16.7734
21.5758
22.4166
21.4153
20.6431
19.8533
17.2303
13.0344
9.42501
6.31259
4.05176
2.5358
1.68349
1.19276
0.920185
10.9547
7.84378
1.01472
8.06804
22.6134
28.4812
28.4496
20.6887
11.6175
6.89781
3.93782
1.96326
0.663457
0.111712
0.219431
0.8318
1.8296
3.04156
9.93544
10.5132
6.45316
9.40341
22.4033
20.7172
8.49652
1.57984
3.63046
12.3273
24.3893
37.7887
52.0224
67.0912
83.7772
102.149
123.264
145.458
4.44481
2.47162
8.67761
6.92803
26.6617
60.0204
155.372
310.595
496.294
697.157
881.138
1031.93
1168.36
1295.8
1430.64
1564.68
1703.33
1830.62
4.95431
19.2464
125.59
268.887
1515.09
3608.32
6116.71
7353.21
8136.55
8441.1
8340.78
8062.52
7821.97
7624
7448.98
7298.72
7151.24
7016.38
3501.43
7243.43
12725.9
26684.1
85165.9
68697.4
48063.3
30099.1
20603.6
16021.3
13925.5
12957.5
12499
12260.4
12073.7
11913
11726
11569.9
0.00046804
0.000558729
0.000650552
0.00217577
0.0125033
0.0353859
0.0715462
0.119348
0.176024
0.23821
0.302629
0.366267
0.426721
0.482227
0.531359
0.573382
0.608024
0.635348
0.655662
0.670064
0.678538
0.683242
0.685906
0.686954
0.688678
0.69169
0.697592
0.708527
0.726383
0.752701
0.788795
0.835733
0.894211
0.96432
1.04543
1.13656
1.23635
1.34331
1.4562
1.57427
1.6973
1.82597
1.96121
2.10474
2.25764
2.41827
2.57722
2.71229
2.79483
2.79168
2.74973
2.68372
2.57648
2.39712
2.10633
1.66289
1.113
0.734902
1.64451
4.33276
8.9609
15.7115
24.6679
35.7892
48.9676
64.0483
80.8507
99.1875
118.874
139.73
161.585
184.275
207.647
231.557
255.851
280.427
305.192
330.065
354.981
379.885
404.734
429.492
454.132
478.628
502.958
527.099
551.033
574.737
598.175
621.312
644.103
666.5
688.448
709.887
730.757
750.991
770.527
789.301
807.253
824.324
840.461
855.617
869.755
882.847
894.868
905.788
915.571
924.204
931.665
937.93
942.99
946.611
948.913
950.26
950.066
948.538
945.577
941.133
935.14
927.54
918.28
907.319
894.628
880.199
864.049
846.222
826.788
805.855
783.534
759.983
735.367
709.883
683.745
657.146
630.289
603.374
576.583
550.089
524.041
498.561
473.748
449.671
426.378
403.889
382.204
361.305
341.159
321.725
302.951
284.786
267.175
250.069
233.422
217.197
201.365
185.906
170.81
156.076
141.714
127.737
114.167
101.029
88.3485
76.151
64.4581
53.2912
42.6644
32.5828
23.0517
14.0817
5.73432
2.85216
10.3965
18.2935
26.2983
34.1121
42.3701
47.8766
58.3471
50.2883
0.00265182
1.18926e-05
0.000710729
0.00585593
0.0210515
0.0449808
0.0680776
0.0823702
0.085007
0.0778991
0.0651224
0.0504682
0.0367834
0.0255379
0.0171586
0.0115798
0.00834862
0.00693933
0.00686334
0.0077113
0.009196
0.0111495
0.0134814
0.0161917
0.0194294
0.0234687
0.0287022
0.0356665
0.045076
0.0578562
0.0752357
0.0987499
0.130225
0.171817
0.226121
0.296487
0.387363
0.504648
0.656297
0.853198
1.11066
1.45033
1.90159
2.50109
3.28728
4.27722
5.45032
6.71819
7.92993
9.02978
10.1294
11.4673
13.1436
15.0697
17.1717
19.4552
21.9267
24.6242
27.2861
29.5697
31.523
33.2426
34.7986
36.2447
37.6131
38.9249
40.1946
41.4314
42.6413
43.8277
44.9936
46.1405
47.2713
48.392
49.4677
50.5003
51.4882
52.43
53.325
54.1717
54.9685
55.714
56.406
57.0423
57.6198
58.1341
58.5853
58.9727
59.2916
59.539
59.711
59.804
59.8146
59.7396
59.5763
59.3223
58.9759
58.5358
58.0012
57.3714
56.6462
55.8272
54.9183
53.9231
52.8475
51.6898
50.45
49.1329
47.7442
46.2874
44.7597
43.1574
41.4967
39.7946
38.0501
36.2706
34.4613
32.6295
30.7824
28.928
27.0747
25.2316
23.408
21.6133
19.8571
18.1484
16.4949
14.9071
13.3908
11.9532
10.5997
9.3353
8.16339
7.08583
6.1043
5.21976
4.43241
3.7421
3.1484
2.65071
2.24842
1.94087
1.72744
1.60751
1.58047
1.64568
1.80246
2.05004
2.38755
2.814
3.32824
3.92886
4.61412
5.38191
6.22971
7.15458
8.15306
9.22128
10.3549
11.5488
12.7985
14.0985
15.442
16.8265
18.247
19.6978
21.1779
22.6849
24.2189
25.7818
27.3679
28.9447
30.5047
32.1068
33.7723
35.6518
37.267
40.394
41.2286
47.281
0.00152098
0.000250921
0.00584926
0.0253964
0.055376
0.0768437
0.0836817
0.0774596
0.0645538
0.0520734
0.0446479
0.0442037
0.0508834
0.0638696
0.0818111
0.103694
0.12813
0.154364
0.181953
0.21065
0.240637
0.27251
0.306989
0.345031
0.388111
0.438045
0.496897
0.566986
0.650969
0.752008
0.873895
1.02117
1.19937
1.4155
1.67897
2.0018
2.39901
2.88888
3.49308
4.23655
5.14654
6.25055
7.56753
9.09415
10.7916
12.5824
14.313
15.8804
17.152
18.1468
18.8759
19.1198
18.9352
18.3982
17.782
17.4018
17.4758
17.8816
18.1497
18.0655
17.6507
17.0068
16.2139
15.3342
14.4094
13.4687
12.5348
11.6219
10.7356
9.88456
9.0728
8.30266
7.5749
6.8889
6.24638
5.64695
5.08938
4.57224
4.09408
3.6532
3.24772
2.8756
2.53468
2.22273
1.93754
1.67702
1.43915
1.2221
1.0243
0.84453
0.681871
0.535762
0.406013
0.292806
0.196668
0.118421
0.0591254
0.019999
0.00233964
0.00747544
0.0366262
0.0906853
0.170554
0.27686
0.40985
0.569878
0.756939
0.970743
1.21112
1.47805
1.77174
2.09275
2.44165
2.81863
3.22377
3.65775
4.1218
4.61727
5.1458
5.709
6.30844
6.94546
7.62108
8.33572
9.08899
9.87941
10.7045
11.5604
12.4427
13.3453
14.2608
15.181
16.0987
17.0046
17.8898
18.7474
19.5717
20.3587
21.1064
21.8147
22.4856
23.1226
23.7305
24.3152
24.8826
25.4387
25.9893
26.539
27.0916
27.6503
28.2173
28.7945
29.3824
29.9807
30.5885
31.2042
31.8255
32.4499
33.0743
33.6943
34.3064
34.9063
35.49
36.0527
36.5939
37.1113
37.6074
38.0857
38.5541
39.0249
39.5087
40.0006
40.4989
41.022
41.5861
42.3658
42.9866
45.0415
45.7476
51.082
0.00715509
0.00188434
0.0191653
0.0404486
0.0466467
0.0442438
0.0381045
0.0318638
0.0288186
0.030791
0.038689
0.0529146
0.0734748
0.100094
0.132269
0.169601
0.211612
0.257816
0.30827
0.363111
0.422756
0.487878
0.559813
0.640411
0.7318
0.836589
0.957963
1.09981
1.26702
1.46573
1.70384
1.99115
2.3397
2.76365
3.2777
3.89801
4.63981
5.51345
6.52761
7.67947
8.95009
10.2924
11.6373
12.8733
13.8891
14.5582
14.8695
14.892
14.6393
14.144
13.4412
12.6212
11.7374
10.8285
9.93849
9.15607
8.5757
8.22506
7.99875
7.76407
7.46765
7.10534
6.68979
6.24087
5.77841
5.31855
4.87578
4.46182
4.08363
3.74862
3.46223
3.22909
3.05268
2.93551
2.87911
2.88395
2.94939
3.0736
3.25373
3.48599
3.76582
4.08809
4.4474
4.83835
5.25577
5.69502
6.15218
6.62407
7.10839
7.60382
8.11006
8.62779
9.15856
9.70464
10.2689
10.8544
11.4648
12.1032
12.7726
13.4736
14.2079
14.9768
15.781
16.6204
17.4919
18.3908
19.3118
20.2496
21.1985
22.1528
23.1072
24.0571
24.9994
25.9319
26.8529
27.7625
28.6624
29.5557
30.4468
31.3406
32.2427
33.1583
34.093
35.0516
36.0378
37.0531
38.0971
39.1663
40.2551
41.3555
42.4562
43.5434
44.6062
45.6268
46.5886
47.4772
48.2807
48.9902
49.6
50.1083
50.5173
50.8332
51.0649
51.2239
51.3227
51.3748
51.3934
51.3906
51.3765
51.3596
51.3483
51.3497
51.3682
51.4063
51.4652
51.5442
51.6414
51.7536
51.8764
52.0033
52.1257
52.2351
52.3287
52.3909
52.4155
52.4064
52.3591
52.2798
52.1807
52.0784
51.991
51.9218
51.8658
51.8465
51.8903
52.1853
52.4549
54.0479
55.2241
59.0808
0.0645761
0.00712802
0.0256806
0.0236984
0.0209028
0.0169033
0.0118478
0.00886957
0.0103328
0.0179394
0.0327466
0.0552721
0.0856724
0.12393
0.169803
0.223303
0.284074
0.352353
0.428549
0.513339
0.60776
0.71337
0.832384
0.967666
1.12275
1.30181
1.50988
1.75307
2.03876
2.37558
2.77395
3.24469
3.79759
4.44022
5.17742
6.00791
6.92411
7.90892
8.92122
9.90708
10.7804
11.4572
11.8363
11.9244
11.7884
11.443
10.9058
10.2198
9.46632
8.70913
7.97435
7.27565
6.62346
6.02419
5.49035
5.04638
4.71972
4.52451
4.4452
4.44447
4.49152
4.56726
4.66102
4.76911
4.89376
5.0385
5.20951
5.414
5.65978
5.95506
6.30756
6.72443
7.21164
7.77365
8.41327
9.13127
9.92619
10.7943
11.7299
12.7251
13.7708
14.8568
15.9723
17.1072
18.2518
19.398
20.5392
21.6706
22.7891
23.8938
24.9859
26.0684
27.1459
28.2244
29.3107
30.4122
31.536
32.689
33.8764
35.1014
36.3709
37.6884
39.0473
40.4431
41.8712
43.3223
44.7848
46.2459
47.6921
49.1103
50.4881
51.8155
53.0855
54.2942
55.4398
56.5238
57.5509
58.5291
59.4687
60.3817
61.2804
62.1781
63.0879
64.0231
64.9938
66.0079
67.0689
68.175
69.3204
70.4956
71.6841
72.8659
74.0253
75.1306
76.1549
77.0725
77.8612
78.5031
78.9852
79.3004
79.4491
79.4384
79.281
78.994
78.5976
78.1141
77.5669
76.9781
76.3662
75.7474
75.1386
74.5552
74.0077
73.5025
73.0437
72.6323
72.2662
71.9412
71.6504
71.384
71.126
70.8613
70.579
70.2606
69.8895
69.4633
68.9757
68.4326
67.8488
67.2455
66.648
66.0731
65.5321
65.0607
64.6994
64.6409
64.7
66.0014
67.4917
70.1986
0.241933
0.0151965
0.0135412
0.00958264
0.0125897
0.0079885
0.0023211
0.000239166
0.00446098
0.0166561
0.0378182
0.068492
0.108992
0.15944
0.220058
0.29099
0.372769
0.466162
0.572271
0.692528
0.828994
0.984218
1.16105
1.36305
1.59446
1.86019
2.16592
2.51788
2.92258
3.38647
3.91382
4.50588
5.15911
5.86393
6.60264
7.34581
8.05538
8.67429
9.14716
9.40838
9.45594
9.31243
9.01249
8.56759
8.01463
7.41037
6.81587
6.26167
5.77009
5.35155
5.00537
4.72622
4.50599
4.33669
4.21445
4.14399
4.13848
4.21301
4.37502
4.61963
4.93829
5.32103
5.75861
6.24544
6.77908
7.3604
7.99366
8.68542
9.44402
10.2791
11.2006
12.2177
13.3379
14.5666
15.9064
17.3565
18.9129
20.5675
22.3092
24.1238
25.9945
27.9031
29.8313
31.7617
33.6789
35.5699
37.4247
39.2364
41.0017
42.7206
44.3967
46.0366
47.6497
49.2472
50.8418
52.447
54.0753
55.7376
57.4451
59.2083
61.0312
62.9137
64.8537
66.8433
68.8717
70.9228
72.9766
75.0096
76.9973
78.9161
80.7452
82.4673
84.0698
85.5448
86.8898
88.1079
89.2082
90.2052
91.118
91.9683
92.7785
93.5715
94.3715
95.2026
96.0864
97.0387
98.0703
99.1802
100.364
101.613
102.904
104.213
105.514
106.76
107.912
108.927
109.771
110.411
110.825
110.996
110.92
110.603
110.061
109.316
108.396
107.334
106.167
104.93
103.652
102.359
101.078
99.8398
98.6626
97.5582
96.5365
95.6017
94.7513
93.9809
93.2817
92.6375
92.0249
91.4187
90.7969
90.1318
89.398
88.5803
87.6672
86.6613
85.5795
84.449
83.3049
82.1816
81.1123
80.1535
79.3654
78.9391
78.7649
79.7693
81.2997
83.1572
0.550884
0.0209901
0.000961164
0.0216633
0.0294607
0.026256
0.0229102
0.024304
0.0331677
0.0511909
0.0794727
0.118812
0.1698
0.232998
0.309069
0.398767
0.503148
0.623678
0.762149
0.920704
1.10183
1.30834
1.54338
1.81028
2.11238
2.45284
2.8342
3.25774
3.72256
4.22457
4.75567
5.30292
5.84699
6.36233
6.81423
7.16558
7.3735
7.4291
7.3349
7.11911
6.79051
6.38063
5.92952
5.48224
5.07658
4.7311
4.45891
4.2642
4.14789
4.10675
4.1341
4.22072
4.35557
4.52768
4.72892
4.95783
5.22285
5.53711
5.91482
6.36473
6.89073
7.49321
8.17121
8.92455
9.75491
10.6664
11.6663
12.7643
13.9719
15.302
16.7673
18.3797
20.1482
22.0784
24.1713
26.423
28.8242
31.3604
34.0124
36.7563
39.5646
42.4077
45.2564
48.0843
50.868
53.5888
56.2327
58.7905
61.2587
63.6391
65.939
68.1701
70.3483
72.4922
74.6223
76.7609
78.9263
81.1365
83.4106
85.7617
88.1968
90.7177
93.3204
95.994
98.7211
101.478
104.233
106.951
109.589
112.111
114.484
116.681
118.68
120.468
122.04
123.398
124.557
125.54
126.377
127.103
127.755
128.365
128.973
129.618
130.337
131.159
132.102
133.171
134.362
135.667
137.061
138.513
139.984
141.413
142.741
143.907
144.858
145.548
145.937
145.997
145.714
145.095
144.156
142.926
141.441
139.743
137.882
135.911
133.872
131.801
129.74
127.738
125.828
124.028
122.358
120.827
119.434
118.175
117.04
116.007
115.04
114.104
113.16
112.168
111.088
109.889
108.548
107.062
105.445
103.734
101.975
100.224
98.5395
97.0023
95.6977
94.8168
94.3079
94.9433
96.2418
97.4253
0.908936
0.0211289
0.0137439
0.0662238
0.0848588
0.0912202
0.0964141
0.105682
0.122139
0.147963
0.184682
0.233593
0.295809
0.372345
0.464232
0.572817
0.699738
0.846771
1.01578
1.20879
1.4279
1.67494
1.95122
2.25728
2.59259
2.95501
3.34028
3.7415
4.1489
4.54953
4.92667
5.26043
5.52675
5.70069
5.76819
5.72672
5.59137
5.36766
5.07716
4.74887
4.4225
4.12795
3.88694
3.71357
3.61639
3.59833
3.65903
3.79439
3.99852
4.26407
4.58318
4.94623
5.34345
5.76536
6.20512
6.66131
7.13976
7.65232
8.21383
8.83807
9.53651
10.318
11.1903
12.1614
13.2403
14.4384
15.7693
17.249
18.895
20.7255
22.7579
25.0077
27.4859
30.198
33.1421
36.3092
39.6824
43.2376
46.9448
50.7676
54.6639
58.5883
62.4976
66.3535
70.1241
73.7841
77.3147
80.7046
83.9502
87.0558
90.0336
92.902
95.6855
98.4129
101.115
103.82
106.56
109.366
112.26
115.261
118.382
121.627
124.988
128.451
131.993
135.58
139.171
142.709
146.133
149.388
152.425
155.206
157.697
159.875
161.728
163.258
164.482
165.434
166.156
166.701
167.123
167.467
167.787
168.145
168.601
169.201
169.976
170.935
172.076
173.397
174.87
176.458
178.11
179.748
181.286
182.639
183.733
184.506
184.902
184.871
184.389
183.461
182.106
180.354
178.247
175.84
173.195
170.389
167.477
164.502
161.525
158.622
155.845
153.22
150.781
148.549
146.523
144.701
143.078
141.622
140.285
139.014
137.755
136.448
135.034
133.46
131.685
129.696
127.503
125.148
122.694
120.219
117.806
115.569
113.623
112.161
111.175
111.314
112.173
112.741
1.2193
0.0173505
0.0604957
0.150498
0.194508
0.22205
0.244214
0.266924
0.294664
0.330526
0.377037
0.436268
0.509572
0.598443
0.704556
0.829506
0.974605
1.14111
1.33007
1.54232
1.77798
2.03601
2.31394
2.60773
2.91157
3.21778
3.51687
3.79736
4.04653
4.24892
4.38965
4.45548
4.44407
4.3609
4.21218
4.01083
3.77557
3.53585
3.31799
3.14449
3.03179
2.9909
3.02772
3.14412
3.33891
3.60822
3.94649
4.34688
4.80187
5.30354
5.8438
6.41433
7.00707
7.61496
8.23357
8.86314
9.50977
10.1848
10.9034
11.6821
12.5373
13.4851
14.5415
15.7231
17.048
18.536
20.2095
22.0929
24.2118
26.5913
29.2558
32.2258
35.5153
39.1295
43.0628
47.298
51.8071
56.5534
61.4933
66.5762
71.7419
76.9245
82.0606
87.0989
91.9983
96.7265
101.259
105.583
109.693
113.598
117.315
120.871
124.301
127.645
130.947
134.249
137.597
141.032
144.587
148.288
152.155
156.192
160.392
164.734
169.186
173.709
178.252
182.738
187.076
191.186
195.008
198.487
201.577
204.24
206.452
208.21
209.531
210.456
211.04
211.361
211.489
211.484
211.414
211.368
211.439
211.699
212.198
212.945
213.949
215.21
216.703
218.385
220.193
222.031
223.782
225.326
226.564
227.42
227.819
227.689
226.99
225.727
223.922
221.609
218.835
215.658
212.156
208.425
204.54
200.547
196.52
192.574
188.786
185.193
181.845
178.785
176.015
173.537
171.354
169.43
167.698
166.087
164.522
162.922
161.2
159.274
157.079
154.583
151.79
148.744
145.526
142.235
138.982
135.91
133.171
130.968
129.332
128.822
129.038
128.987
1.41245
0.0156465
0.139029
0.281258
0.369061
0.431796
0.480332
0.522691
0.565282
0.613002
0.670154
0.73864
0.820878
0.918861
1.03403
1.16729
1.31919
1.48965
1.67787
1.88225
2.09995
2.32654
2.55568
2.77954
2.98933
3.17566
3.3286
3.43779
3.49311
3.49113
3.43273
3.32416
3.17289
2.99276
2.80468
2.63104
2.49254
2.40639
2.38614
2.44129
2.57692
2.79412
3.09102
3.46371
3.90678
4.4136
4.97677
5.58846
6.24081
6.92608
7.63694
8.3665
9.10883
9.85966
10.6177
11.3858
12.1715
12.9873
13.8496
14.7779
15.7933
16.9178
18.176
19.5936
21.1981
23.0192
25.0892
27.4423
30.1138
33.1401
36.5524
40.3772
44.6322
49.3221
54.4346
59.9404
65.7945
71.9412
78.3218
84.8721
91.5104
98.1386
104.672
111.047
117.218
123.145
128.8
134.165
139.234
144.019
148.545
152.846
156.966
160.962
164.892
168.82
172.802
176.888
181.127
185.561
190.213
195.093
200.19
205.472
210.898
216.422
221.992
227.511
232.85
237.898
242.587
246.853
250.634
253.874
256.534
258.6
260.084
261.024
261.486
261.569
261.37
260.959
260.411
259.847
259.403
259.193
259.29
259.706
260.457
261.553
262.977
264.678
266.584
268.586
270.525
272.233
273.577
274.47
274.824
274.544
273.569
271.907
269.592
266.662
263.164
259.16
254.732
250.001
245.054
239.94
234.738
229.611
224.669
219.955
215.541
211.504
207.853
204.596
201.753
199.29
197.118
195.146
193.276
191.398
189.395
187.147
184.555
181.561
178.157
174.39
170.353
166.169
161.971
157.935
154.257
151.154
148.692
147.368
146.773
146.047
1.48336
0.0228771
0.246848
0.458775
0.609611
0.721862
0.806115
0.873481
0.933672
0.994196
1.06054
1.13555
1.22212
1.32172
1.43538
1.56314
1.70404
1.85604
2.01604
2.17981
2.34238
2.4968
2.63507
2.74922
2.83085
2.87225
2.86783
2.81706
2.72379
2.5927
2.43399
2.26261
2.09777
1.95882
1.86385
1.82853
1.86532
1.98283
2.18569
2.47503
2.84893
3.30315
3.83179
4.42794
5.08406
5.7921
6.54371
7.33075
8.14543
8.98068
9.83023
10.689
11.5536
12.4232
13.2991
14.1885
15.1021
16.0557
17.0694
18.1676
19.3777
20.732
22.2599
23.9952
25.9747
28.2379
30.8265
33.7838
37.1541
40.9803
45.3044
50.1629
55.5801
61.5591
68.0777
75.088
82.5176
90.2809
98.3025
106.517
114.824
123.082
131.172
139.027
146.603
153.861
160.764
167.287
173.422
179.183
184.61
189.737
194.611
199.31
203.913
208.496
213.132
217.888
222.829
228.007
233.462
239.207
245.226
251.475
257.894
264.418
271.004
277.538
283.856
289.813
295.346
300.395
304.883
308.737
311.902
314.348
316.078
317.123
317.541
317.437
316.925
316.09
315.014
313.846
312.776
311.971
311.536
311.491
311.856
312.665
313.906
315.525
317.438
319.529
321.601
323.418
324.801
325.638
325.825
325.262
323.883
321.703
318.775
315.138
310.848
305.967
300.572
294.8
288.721
282.407
275.941
269.529
263.309
257.335
251.702
246.535
241.855
237.678
234.056
230.963
228.291
225.924
223.742
221.604
219.353
216.824
213.872
210.408
206.409
201.915
197.034
191.904
186.684
181.576
176.822
172.659
169.192
166.88
165.3
163.809
1.42897
0.0435218
0.378054
0.677182
0.907968
1.08157
1.20834
1.3029
1.38028
1.45315
1.52674
1.60335
1.68557
1.7753
1.87305
1.97766
2.08657
2.19597
2.30111
2.3964
2.47564
2.5323
2.55976
2.55103
2.50224
2.41367
2.2883
2.1321
1.95548
1.77393
1.60501
1.4672
1.37845
1.35502
1.41034
1.55411
1.79196
2.12574
2.5539
3.07214
3.67419
4.35228
5.09764
5.90096
6.7528
7.64384
8.56513
9.50744
10.4645
11.4309
12.403
13.3795
14.3617
15.354
16.367
17.4082
18.4927
19.6403
20.8768
22.2323
23.7407
25.4379
27.3654
29.5668
32.0885
34.9783
38.2853
42.0585
46.3481
51.2051
56.6801
62.8207
69.6629
77.2087
85.4153
94.2096
103.476
113.074
122.901
132.921
143.028
153.026
162.742
172.125
181.165
189.828
198.065
205.843
213.146
219.989
226.431
232.496
238.225
243.726
249.091
254.408
259.762
265.236
270.908
276.846
283.107
289.715
296.656
303.875
311.286
318.79
326.322
333.655
340.681
347.289
353.432
359.062
364.094
368.444
372.044
374.861
376.892
378.165
378.721
378.629
377.942
376.663
375.05
373.264
371.529
370.055
368.968
368.329
368.174
368.569
369.523
370.963
372.782
374.854
376.95
378.794
380.152
380.862
380.726
379.556
377.514
374.6
370.877
366.389
361.199
355.386
349.031
342.256
335.009
327.41
319.637
311.904
304.314
296.962
289.98
283.537
277.682
272.434
267.896
264.065
260.812
258.002
255.493
253.105
250.638
247.874
244.61
240.719
236.154
230.953
225.23
219.138
212.856
206.609
200.68
195.33
190.703
187.239
184.515
182.151
1.2575
0.0784392
0.526571
0.926534
1.24915
1.48856
1.65505
1.77336
1.86678
1.95087
2.02864
2.10095
2.16891
2.23543
2.30177
2.36606
2.42456
2.4725
2.50461
2.51542
2.49955
2.45127
2.36687
2.24655
2.09153
1.90695
1.70291
1.49366
1.29612
1.12879
1.01072
0.96023
0.993454
1.1233
1.35868
1.70412
2.15993
2.72272
3.38607
4.14127
4.97764
5.88436
6.84975
7.86238
8.91178
9.98891
11.0862
12.2009
13.3257
14.4577
15.5967
16.7456
17.9102
19.1
20.326
21.6081
22.9693
24.4379
26.0481
27.8379
29.8493
32.1273
34.7198
37.6778
41.0563
44.908
49.2853
54.2394
59.8183
66.0693
73.0433
80.7986
89.3911
98.8212
109.007
119.849
131.18
142.772
154.466
166.279
178.056
189.587
200.738
211.488
221.881
231.895
241.462
250.535
259.096
267.143
274.673
281.78
288.579
295.107
301.449
307.702
313.962
320.313
326.838
333.616
340.719
348.188
356.021
364.176
372.58
381.157
389.819
398.409
406.661
414.415
421.583
428.033
433.624
438.241
441.807
444.301
445.765
446.3
446.04
445.132
443.713
441.85
439.68
437.399
435.161
433.123
431.325
429.904
429.077
428.943
429.539
430.78
432.504
434.515
436.383
438.047
439.285
439.939
439.833
438.742
436.551
433.217
428.717
423.072
416.385
408.826
400.606
391.933
383.062
374.069
365.033
356.108
347.129
338.274
329.859
322.016
314.838
308.376
302.777
298.082
294.154
290.841
287.983
285.353
282.696
279.738
276.212
271.941
266.855
260.981
254.439
247.4
240.062
232.665
225.525
218.904
213.002
208.253
204.24
200.895
0.984514
0.126583
0.683145
1.1904
1.60515
1.90475
2.10223
2.23998
2.34977
2.44313
2.51756
2.57601
2.61972
2.65236
2.67628
2.68929
2.68695
2.66442
2.6169
2.54006
2.42954
2.2843
2.10439
1.89285
1.65778
1.411
1.16807
0.947603
0.770157
0.656863
0.627851
0.700884
0.890267
1.20586
1.65258
2.23036
2.93479
3.75807
4.69005
5.71896
6.83318
8.01749
9.25814
10.5418
11.8566
13.1923
14.5411
15.8987
17.2671
18.6497
20.0533
21.488
22.9663
24.5048
26.1213
27.8459
29.7134
31.7621
34.0364
36.5839
39.4561
42.7078
46.395
50.576
55.3063
60.6384
66.6206
73.2957
80.6987
88.8598
97.8143
107.625
118.401
130.164
142.736
155.933
169.43
183.101
196.83
210.692
224.602
238.216
251.365
264.075
276.352
288.12
299.266
309.697
319.416
328.469
336.869
344.753
352.27
359.486
366.526
373.533
380.639
387.961
395.604
403.671
412.255
421.419
431.165
441.44
452.147
463.089
474.243
484.357
492.686
500.273
507.042
512.914
517.792
521.61
524.344
526.023
526.729
526.605
525.808
524.489
522.929
518.542
513.934
509.321
505.001
501.152
497.938
495.425
493.737
492.983
493.177
494.258
496.131
498.641
501.541
504.508
507.248
509.434
510.998
508.656
505.071
500.188
494.042
486.694
478.283
469.02
459.139
448.91
437.883
425.693
413.655
401.986
390.933
380.455
370.645
361.379
352.694
344.882
338.096
332.378
327.658
323.771
320.549
317.698
314.882
311.74
307.982
303.373
297.812
291.307
283.983
276.04
267.704
259.219
250.917
242.999
235.757
229.64
224.225
219.804
0.636118
0.187647
0.838187
1.44443
1.93794
2.2821
2.51407
2.68847
2.80298
2.89214
2.95014
2.97256
2.98279
2.98089
2.96176
2.92272
2.85978
2.76861
2.64544
2.48824
2.29533
2.06714
1.80855
1.52811
1.23836
0.956207
0.702572
0.500995
0.376047
0.351712
0.449817
0.688662
1.08175
1.63721
2.35705
3.23768
4.27056
5.44362
6.74249
8.15097
9.65087
11.2257
12.8593
14.5374
16.2484
17.9818
19.7328
21.5008
23.2999
25.139
27.035
29.0106
31.0895
33.3
35.6786
38.263
41.0942
44.2198
47.689
51.5561
55.8803
60.723
66.1403
72.1975
78.9616
86.4853
94.8163
103.989
114.02
124.903
136.621
149.199
162.823
177.584
193.303
209.795
226.734
243.903
261.156
278.809
295.703
309.927
323.57
336.699
349.453
361.722
373.401
384.443
394.875
404.772
414.232
423.329
432.136
440.768
449.343
457.971
466.757
475.784
485.117
494.811
504.911
515.428
526.314
537.462
548.72
559.917
570.881
581.395
591.087
599.692
607.059
613.077
617.655
620.728
622.28
622.358
621.08
618.639
615.271
611.192
606.618
601.707
596.629
591.655
586.988
582.835
578.864
573.957
570.386
568.299
567.797
568.854
571.347
575.396
577.785
579.619
580.97
581.554
581.025
579.029
575.348
569.956
562.85
554.098
543.853
532.344
519.854
506.7
493.216
479.611
466.141
453.137
439.76
425.583
412.545
400.855
390.431
381.207
373.223
366.241
360.554
356.007
352.41
349.403
346.538
343.169
339.119
334.163
328.153
321.05
312.987
304.209
294.976
285.556
276.269
267.115
258.519
251.026
244.13
238.566
0.211979
0.255716
0.97572
1.6618
2.21125
2.5992
2.89345
3.0133
3.10557
3.18122
3.24696
3.26538
3.24448
3.21322
3.15433
3.06589
2.94618
2.79202
2.60221
2.37602
2.11411
1.81979
1.50131
1.17167
0.848793
0.555875
0.320475
0.172973
0.144343
0.264092
0.558395
1.04837
1.74908
2.66866
3.80743
5.15952
6.71241
8.44954
10.3518
12.3983
14.5668
16.837
19.1906
21.6119
24.0965
26.645
29.264
31.9661
34.7706
37.6754
40.6972
43.887
47.2714
50.886
54.7733
58.979
63.5508
68.5395
73.9996
79.9894
86.5715
93.8115
101.781
110.556
120.217
130.84
142.502
155.268
169.182
184.26
200.492
217.91
236.736
257.139
278.38
300.93
321.629
339.868
357.749
375.487
393.116
410.109
426.072
441.062
455.217
468.492
480.818
492.198
502.715
512.496
521.71
530.505
539.01
547.372
555.746
564.294
573.161
582.459
592.27
602.654
613.655
625.276
637.441
649.978
662.639
675.157
687.315
698.756
709.172
718.236
725.744
731.612
735.76
738.102
738.601
737.289
734.275
729.753
723.949
717.078
709.367
701.014
692.405
683.862
675.725
668.279
661.748
656.233
651.85
648.73
646.909
646.345
646.907
648.366
650.327
652.324
653.897
654.58
653.946
651.604
647.532
641.645
633.943
624.451
613.255
600.505
586.388
571.176
555.02
538.254
521.303
504.578
488.494
473.211
458.98
445.327
430.936
418.411
407.803
399.162
392.281
386.967
382.947
379.851
377.224
374.576
371.35
367.076
361.382
354.06
345.186
335.062
324.068
312.67
301.354
290.623
280.716
271.968
263.57
256.826
0.287039
0.332295
1.076
1.80323
2.37948
2.80183
3.09858
3.21598
3.30024
3.36799
3.4274
3.43828
3.40641
3.34603
3.24383
3.10758
2.93926
2.73659
2.499
2.22638
1.91858
1.57992
1.22221
0.865052
0.533822
0.260544
0.0825894
0.0410626
0.178164
0.534795
1.14807
2.04924
3.2627
4.80444
6.68181
8.88938
11.4139
14.2356
17.3298
20.6677
24.2176
27.9495
31.8416
35.8712
40.03
44.3211
48.7481
53.3268
58.0666
62.9886
68.1288
73.5229
79.2037
85.214
91.5971
98.3948
105.649
113.403
121.7
130.591
140.13
150.378
161.423
173.359
186.284
200.333
215.656
232.41
250.763
270.877
292.883
316.693
342.728
370.721
393.233
415.932
438.784
461.373
483.175
504.306
524.714
543.939
561.481
577.323
591.782
605.008
616.914
627.514
636.972
645.499
653.323
660.653
667.65
674.462
681.263
688.244
695.587
703.434
711.882
721.004
730.863
741.489
752.835
764.73
776.925
789.161
801.248
812.962
823.903
833.569
841.634
847.942
852.358
854.721
854.916
852.926
848.848
842.891
835.329
826.318
816.256
805.439
794.146
782.685
771.393
760.604
750.524
741.393
733.549
727.173
722.374
719.11
717.211
716.396
716.162
716.227
716.133
715.495
713.99
711.33
707.26
701.617
694.297
685.222
674.374
661.8
647.599
631.954
615.071
597.22
578.628
559.67
540.548
521.746
503.8
487.149
471.966
458.413
446.804
435.072
425.842
419.039
414.423
411.557
409.989
407.786
404.074
399.31
393.105
385.235
375.749
364.901
353.07
340.733
328.444
315.889
303.279
292.131
281.99
274.052
0.884847
0.379503
1.12322
1.85404
2.41721
2.82216
3.13497
3.2812
3.38093
3.46837
3.53211
3.52121
3.4658
3.35273
3.19524
3.00928
2.80065
2.56668
2.30198
2.00796
1.68164
1.32767
0.96175
0.609809