/*--------------------------------*- C++ -*----------------------------------*\
| =========                 |                                                 |
| \\      /  F ield         | OpenFOAM: The Open Source CFD Toolbox           |
|  \\    /   O peration     | Version:  2312                                  |
|   \\  /    A nd           | Website:  www.openfoam.com                      |
|    \\/     M anipulation  |                                                 |
\*---------------------------------------------------------------------------*/
FoamFile
{
    version     2.0;
    format      ascii;
    arch        "LSB;label=32;scalar=64";
    class       volScalarField;
    location    "0.2";
    object      PkMean;
}
// * * * * * * * * * * * * * * * * * * * * * * * * * * * * * * * * * * * * * //

dimensions      [0 2 -3 0 0 0 0];

internalField   nonuniform List<scalar> 
12225
(
6151.81
18181.7
125636
83486.5
49143
28631.2
20428
17110.5
15854.8
15420.5
15192.5
15051.9
14898.2
14800.3
14824.5
14699.8
15403.7
14202.3
91.8666
25.8785
1798.28
6415.81
9718.28
11110.7
11456.6
10866.8
10228.8
9695.63
9243.95
8879.7
8560.8
8312.02
8068.07
7925.32
7646.25
7726.81
39.6813
14.2401
17.0963
133.765
480.922
925.598
1434.64
1872.67
2235.7
2536.41
2792.33
2997.79
3134.27
3209.52
3263.35
3289.44
3280.02
3272.23
30.7027
20.3642
34.6947
16.6128
3.69702
17.6724
57.0576
111.068
171.747
240.23
310.88
389.757
464.957
547.111
616.162
692.629
742.324
808.615
29.374
21.1352
31.558
36.2903
21.2094
7.95762
1.63551
0.347838
2.34214
6.58758
12.7146
20.5549
29.8536
40.4814
51.4407
63.7965
74.1923
88.22
27.7314
18.3278
26.0709
29.6758
28.9584
20.1969
10.7899
5.49152
2.92647
1.53666
0.816442
0.409157
0.296825
0.398951
0.653107
1.1204
1.52057
2.45678
26.8915
15.7231
21.6317
25.7878
25.8046
21.7236
14.695
8.69061
5.7498
4.19613
3.38516
2.80279
2.4727
2.15605
1.99814
1.7441
1.60774
1.25488
26.1979
14.1804
17.9797
21.8179
22.6584
20.1846
15.3491
10.4525
7.42064
5.73433
4.82617
4.23956
3.93917
3.7216
3.64623
3.51556
3.42555
3.12477
24.8351
12.1438
14.7534
18.2844
19.2278
17.732
14.4261
10.8317
8.31101
6.75333
5.81757
5.20779
4.86806
4.64665
4.54044
4.40939
4.28338
3.99413
24.5664
12.2241
12.7381
15.206
15.9812
14.7549
12.3574
9.90004
8.13008
6.96712
6.19653
5.66724
5.33713
5.1167
4.97528
4.82292
4.65859
4.37833
24.6604
11.4131
10.4707
12.0312
12.7673
11.92
10.1558
8.44837
7.23798
6.43906
5.88768
5.49225
5.22715
5.04039
4.90119
4.75251
4.58586
4.34226
23.691
10.5305
8.83433
9.74814
10.3112
9.72434
8.3985
7.12012
6.22314
5.63625
5.2273
4.93003
4.72191
4.56965
4.44742
4.31721
4.17047
3.976
22.7696
9.87571
7.82635
8.07209
8.36701
7.90995
6.92733
5.95783
5.25976
4.79367
4.46265
4.2158
4.03481
3.89748
3.78281
3.66706
3.53875
3.38855
21.2029
9.39269
7.21146
6.82056
6.77598
6.36688
5.6531
4.93212
4.37741
3.98202
3.68827
3.46006
3.2822
3.14016
3.01875
2.90481
2.78649
2.66645
18.8124
8.27062
6.23133
5.60103
5.38776
5.05188
4.55075
4.03239
3.597
3.25832
2.99072
2.77258
2.59301
2.44318
2.31355
2.19722
2.08457
1.98129
17.8548
6.97995
5.20472
4.53958
4.30765
4.0692
3.73431
3.36574
3.02396
2.72992
2.48019
2.26692
2.08414
1.92727
1.79051
1.67083
1.55999
1.46392
16.1221
6.33515
5.02536
4.31892
3.96418
3.69217
3.38648
3.05424
2.73047
2.43636
2.17664
1.95018
1.75431
1.58603
1.44037
1.31607
1.20434
1.1112
14.7783
5.09931
4.26619
3.63859
3.29719
3.06608
2.83671
2.58432
2.31948
2.05972
1.81852
1.60391
1.41796
1.2594
1.12378
1.00992
0.909903
0.827657
14.0745
4.71831
3.98429
3.5131
3.2691
3.10809
2.92209
2.68844
2.42156
2.14574
1.88438
1.6524
1.45416
1.28789
1.14764
1.03107
0.930174
0.846592
15.3466
5.65147
4.44616
3.8425
3.68509
3.64386
3.5296
3.29582
2.9692
2.60694
2.26546
1.97353
1.73416
1.53949
1.37868
1.24692
1.13512
1.04417
16.8058
6.99827
5.51722
4.83515
4.78233
4.90198
4.87795
4.59505
4.10285
3.53877
3.02126
2.59975
2.2682
2.00552
1.79249
1.62127
1.47921
1.36631
17.5063
7.50084
5.94171
5.58624
5.98218
6.53214
6.73018
6.37781
5.60162
4.70302
3.91855
3.31453
2.85847
2.50512
2.22325
2.00143
1.8216
1.6818
18.7971
8.63325
7.07612
7.17018
8.38055
9.66279
10.0905
9.41443
7.90892
6.25429
4.92612
3.98535
3.31746
2.82476
2.44844
2.16425
1.94214
1.77467
19.5457
9.14433
7.45172
8.41273
11.2355
13.7704
14.6226
13.4559
10.7581
7.88362
5.71632
4.31401
3.38096
2.75085
2.29452
1.97347
1.72658
1.54756
20.9212
9.56155
8.10183
10.495
15.5634
18.4616
18.8556
16.9374
12.7199
8.46955
5.54641
3.78159
2.64733
1.93839
1.4415
1.1115
0.853143
0.67345
21.655
10.0531
8.61094
12.9889
20.4897
23.9857
22.7585
15.185
8.08368
3.88109
1.59753
0.545759
0.210649
0.361203
0.856364
1.60593
2.61074
3.77
23.9169
10.0345
8.48457
13.7658
24.909
20.0603
7.63076
1.5681
4.18149
12.9652
25.1
38.9948
54.3749
70.778
88.4964
106.807
126.66
146.364
25.8596
8.1381
9.13217
6.31931
24.4593
56.8826
149.17
295.852
472.829
659.069
844.186
1011.49
1167.1
1307.66
1441.4
1562.53
1680.84
1785.29
28.5156
29.5763
125.979
245.961
1463.87
3579.79
5977.69
7130.11
7925.94
8270.96
8241.88
8009.86
7788.95
7595.12
7415.46
7258.95
7108.31
6975.49
3493.92
7028.13
12588.7
27161.1
86895.3
68975.7
47716.3
29803.2
20525.8
16072.4
14022.9
13054.6
12584.5
12342.3
12164.4
12021.2
11851.6
11708.3
0.00299117
0.00379687
0.00526398
0.00743413
0.0279451
0.0743532
0.14385
0.231449
0.330034
0.431382
0.528099
0.61355
0.683493
0.731596
0.759374
0.768455
0.757353
0.727623
0.682652
0.627124
0.566585
0.506632
0.451999
0.406184
0.372031
0.349522
0.34359
0.353709
0.383036
0.440831
0.528293
0.634315
0.749775
0.868575
0.987716
1.10666
1.22637
1.34851
1.47491
1.60726
1.74711
1.89542
2.05139
2.20972
2.35979
2.47863
2.54781
2.56701
2.53166
2.44693
2.317
2.12023
1.83875
1.47911
1.20966
1.34139
2.16061
4.06379
7.44649
12.473
19.2348
27.7875
38.1276
50.2042
63.9374
79.2287
95.9717
114.058
133.378
153.825
175.291
197.669
220.847
244.714
269.168
294.12
319.481
345.166
371.096
397.193
423.383
449.598
475.773
501.844
527.753
553.441
578.848
603.915
628.583
652.794
676.487
699.606
722.09
743.882
764.924
785.158
804.526
822.974
840.446
856.887
872.245
886.466
899.5
911.303
921.836
931.063
938.95
945.492
950.679
954.476
956.884
957.933
957.631
955.955
952.949
948.607
942.977
936.064
927.893
918.499
907.913
896.171
883.313
869.382
854.424
838.488
821.624
803.886
785.329
766.011
745.991
725.329
704.087
682.325
660.107
637.496
614.555
591.347
567.935
544.379
520.743
497.086
473.466
449.942
426.567
403.393
380.471
357.849
335.57
313.676
292.205
271.192
250.67
230.667
211.21
192.323
174.026
156.339
139.281
122.876
107.415
93.6488
81.5032
70.6636
61.1296
53.0504
46.4564
41.5318
38.0172
36.161
36.5367
40.9996
50.8235
62.8414
75.2091
86.8828
99.6168
106.419
121.925
104.536
0.00860571
0.000111984
0.00492127
0.0264978
0.0664935
0.10521
0.127133
0.126907
0.10961
0.0841463
0.0582362
0.0364503
0.0207196
0.0110726
0.00657345
0.00576322
0.00711642
0.00941051
0.0117508
0.0135724
0.0145902
0.0147854
0.0143762
0.0138774
0.0138918
0.0151102
0.0183277
0.025092
0.0385737
0.0631047
0.103046
0.162117
0.243299
0.348507
0.479741
0.641229
0.840611
1.08967
1.40462
1.80585
2.31674
2.9607
3.75491
4.70128
5.77486
6.91081
8.02659
9.07379
10.1064
11.2226
12.5227
14.0575
15.8199
17.7773
19.9172
22.1689
24.4056
26.5388
28.4932
30.2482
31.8621
33.3758
34.8232
36.2253
37.5968
38.9467
40.281
41.6025
42.9128
44.2123
45.501
46.7779
48.0376
49.269
50.4583
51.6011
52.6939
53.7333
54.7157
55.6376
56.4955
57.2856
58.0052
58.652
59.2235
59.7189
60.1361
60.4731
60.7277
60.8975
60.9807
60.9755
60.8807
60.6952
60.4182
60.0492
59.5881
59.035
58.3909
57.6574
56.8365
55.9295
54.9375
53.8622
52.7051
51.4692
50.1574
48.7747
47.3251
45.8136
44.2452
42.6253
40.9596
39.2546
37.5174
35.7543
33.9725
32.1778
30.3767
28.5755
26.7809
24.9997
23.2385
21.5042
19.8036
18.1435
16.5304
14.9711
13.4719
12.0391
10.6789
9.39723
8.19978
7.09193
6.0788
5.16517
4.35541
3.65352
3.06309
2.58725
2.22867
1.98955
1.87157
1.8759
2.00318
2.25351
2.62645
3.12103
3.73575
4.46857
5.31697
6.27793
7.34795
8.52315
9.79925
11.1716
12.6354
14.1855
15.8166
17.523
19.2968
21.131
23.0278
24.9891
27.0164
29.1095
31.269
33.496
35.7948
38.1683
40.6139
43.1242
45.6939
48.3856
51.1506
54.3102
56.9861
61.9927
63.6463
72.9049
0.00329938
0.00170289
0.0237492
0.0622828
0.0882722
0.0943467
0.0834368
0.0635883
0.0442448
0.0315379
0.0277861
0.0328756
0.0454509
0.0635966
0.0852075
0.108238
0.131006
0.152425
0.171911
0.189526
0.205962
0.222586
0.241636
0.266685
0.303055
0.357789
0.440867
0.560157
0.718317
0.907647
1.11748
1.35023
1.61841
1.93681
2.32052
2.7856
3.34974
4.03126
4.8472
5.80977
6.92093
8.16817
9.51843
10.9137
12.2845
13.5464
14.632
15.4921
16.084
16.3883
16.4193
16.2394
15.9939
15.8406
15.8695
16.0322
16.2034
16.2471
16.0726
15.6937
15.1618
14.531
13.8416
13.1225
12.3945
11.6711
10.9612
10.2702
9.602
8.95837
8.33995
7.74635
7.17695
6.63146
6.10987
5.61163
5.136
4.68246
4.25057
3.84002
3.45056
3.08201
2.73422
2.40707
2.10045
1.81431
1.54861
1.30337
1.07868
0.874678
0.691592
0.529706
0.389371
0.270995
0.175032
0.101977
0.0523508
0.0266889
0.0255112
0.0493176
0.098618
0.173928
0.275784
0.404751
0.561397
0.746291
0.959956
1.20281
1.47524
1.77754
2.10997
2.47265
2.86559
3.28864
3.74157
4.22413
4.73592
5.27658
5.84566
6.44274
7.06732
7.71886
8.39679
9.10043
9.82909
10.582
11.3585
12.1576
12.9786
13.8205
14.6823
15.563
16.4618
17.3774
18.3087
19.2546
20.2137
21.1847
22.1663
23.1569
24.1551
25.1593
26.1679
27.1793
28.1918
29.2038
30.2136
31.2195
32.2197
33.2127
34.1968
35.1704
36.1319
37.08
38.0134
38.9309
39.8315
40.7151
41.5813
42.4293
43.2578
44.0647
44.8511
45.6183
46.3692
47.1069
47.8339
48.5532
49.2698
49.9911
50.7214
51.4633
52.2104
53.0118
53.817
54.9798
55.7765
58.7123
59.558
67.3533
0.0179634
0.00806977
0.0402698
0.0495607
0.0443847
0.0359631
0.0259043
0.0181961
0.0157136
0.0198729
0.0311912
0.0495857
0.0745133
0.105023
0.140036
0.178262
0.218497
0.260068
0.302777
0.347199
0.394882
0.448711
0.513406
0.596078
0.706177
0.854141
1.04799
1.28652
1.55869
1.85408
2.18029
2.5583
3.00765
3.54428
4.17968
4.92
5.76589
6.70869
7.72835
8.78848
9.83717
10.812
11.6454
12.2673
12.6271
12.7216
12.5769
12.2327
11.7226
11.0906
10.387
9.65985
8.9571
8.33442
7.83045
7.45571
7.18085
6.95511
6.72507
6.46494
6.17403
5.86319
5.54552
5.2332
4.93607
4.66118
4.41335
4.19544
4.00908
3.85528
3.73455
3.64719
3.59341
3.57344
3.5875
3.63576
3.71832
3.83519
3.98631
4.17148
4.39038
4.64256
4.92746
5.24444
5.59283
5.97194
6.38112
6.8198
7.28747
7.78373
8.30822
8.86066
9.44084
10.0485
10.6835
11.3454
12.0338
12.7483
13.4884
14.2539
15.0446
15.86
16.6997
17.5632
18.45
19.3591
20.2898
21.2405
22.2099
23.1966
24.1991
25.2159
26.2454
27.2858
28.3354
29.3927
30.4558
31.5232
32.5931
33.664
34.7344
35.8027
36.8674
37.927
38.98
40.0251
41.0608
42.086
43.0993
44.0994
45.0852
46.0557
47.0099
47.9465
48.8648
49.7637
50.6424
51.5
52.3355
53.148
53.9367
54.7008
55.4394
56.1517
56.8371
57.4948
58.1243
58.7248
59.296
59.8372
60.3482
60.8288
61.2789
61.6984
62.0875
62.4465
62.7761
63.0771
63.3504
63.5962
63.8132
63.9989
64.1524
64.274
64.3658
64.4303
64.4699
64.4872
64.4865
64.4742
64.4541
64.4291
64.3905
64.387
64.3907
64.731
64.8924
66.8289
68.0266
73.3331
0.152243
0.0187211
0.0274952
0.0205785
0.0189604
0.0129567
0.00626307
0.00302632
0.00579237
0.015974
0.0341162
0.0601673
0.093726
0.134164
0.180778
0.232781
0.289679
0.351575
0.419227
0.494435
0.580415
0.68228
0.807344
0.964753
1.16417
1.41353
1.71509
2.06471
2.45641
2.89106
3.37671
3.92436
4.54299
5.23474
5.99241
6.79859
7.62205
8.41739
9.12765
9.70245
10.1038
10.2995
10.2783
10.0576
9.67085
9.15658
8.56081
7.92563
7.2842
6.65854
6.06446
5.51773
5.0349
4.63323
4.32775
4.12668
4.02654
4.01452
4.073
4.18674
4.34581
4.54469
4.78041
5.05164
5.35763
5.69776
6.07165
6.47893
6.91932
7.39268
7.89907
8.43873
9.01217
9.62008
10.2632
10.9423
11.6578
12.4102
13.1993
14.0251
14.8868
15.7836
16.7143
17.6775
18.672
19.6962
20.7488
21.8287
22.9348
24.0662
25.2221
26.4017
27.6044
28.8295
30.0762
31.3434
32.6304
33.9365
35.2611
36.6027
37.96
39.3321
40.7176
42.1149
43.5223
44.9378
46.3595
47.7857
49.2143
50.6432
52.0701
53.4928
54.9089
56.3162
57.7123
59.0952
60.4625
61.812
63.1415
64.4492
65.7328
66.9907
68.221
69.4218
70.5918
71.7292
72.8329
73.9013
74.9334
75.928
76.8842
77.8012
78.6783
79.5146
80.3097
81.0632
81.7744
82.4431
83.0689
83.6513
84.1901
84.6851
85.136
85.5426
85.9049
86.223
86.4967
86.7264
86.912
87.0541
87.153
87.2095
87.2244
87.1986
87.1332
87.0295
86.889
86.7131
86.503
86.2592
85.9811
85.6669
85.3158
84.9276
84.5038
84.0466
83.5583
83.0421
82.5021
81.9438
81.3715
80.7909
80.2018
79.6536
79.1436
78.9677
78.7895
80.1142
81.5386
85.0692
0.467431
0.0250497
0.00733854
0.0174042
0.0225346
0.0182976
0.0134404
0.0127128
0.0187045
0.0327853
0.0555334
0.0870434
0.127152
0.175582
0.232078
0.296528
0.369346
0.451648
0.545527
0.654422
0.78347
0.939665
1.13154
1.36823
1.65765
2.00405
2.40637
2.85807
3.35201
3.88404
4.45294
5.05647
5.6864
6.32516
6.943
7.49971
7.95083
8.26269
8.41772
8.40921
8.24485
7.94766
7.54534
7.07203
6.56521
6.06034
5.58536
5.15685
4.78305
4.46654
4.20773
4.0071
3.86707
3.79297
3.79271
3.87508
4.04674
4.31061
4.6653
5.10676
5.6296
6.22791
6.89589
7.62808
8.41954
9.26598
10.1638
11.1101
12.1027
13.1401
14.2212
15.3458
16.5138
17.7256
18.9818
20.2828
21.6288
23.0199
24.4554
25.9343
27.455
29.0154
30.6133
32.2459
33.9108
35.6053
37.3271
39.0742
40.8448
42.6373
44.4504
46.2827
48.1332
50.0003
51.8827
53.7789
55.6875
57.6068
59.5351
61.4703
63.4104
65.3531
67.2962
69.237
71.173
73.1016
75.0203
76.9264
78.8171
80.6895
82.5408
84.3681
86.1685
87.939
89.6769
91.3794
93.0438
94.6673
96.2474
97.7817
99.2679
100.704
102.087
103.417
104.69
105.907
107.064
108.162
109.198
110.172
111.084
111.933
112.719
113.441
114.099
114.693
115.224
115.691
116.095
116.435
116.713
116.929
117.082
117.174
117.204
117.174
117.085
116.937
116.731
116.467
116.149
115.776
115.352
114.877
114.353
113.783
113.17
112.514
111.817
111.082
110.308
109.494
108.641
107.75
106.82
105.854
104.856
103.828
102.774
101.701
100.614
99.5236
98.439
97.4134
96.4657
95.8587
95.3848
96.2148
97.5712
99.7961
0.888724
0.0233121
0.0110313
0.0519226
0.0651334
0.0659686
0.0654586
0.0684972
0.0778277
0.0950431
0.12102
0.156207
0.200856
0.2552
0.319603
0.394763
0.481997
0.583504
0.70265
0.84423
1.01455
1.22118
1.47214
1.77449
2.13217
2.54431
3.00418
3.50025
4.01882
4.54615
5.06827
5.56902
6.02665
6.41328
6.70181
6.87363
6.92051
6.84341
6.65369
6.3724
6.02683
5.6479
5.26529
4.90428
4.5843
4.3187
4.11571
3.979
3.90885
3.90311
3.95849
4.07185
4.2416
4.46904
4.75922
5.12051
5.56273
6.09508
6.72417
7.45349
8.28351
9.21239
10.2367
11.3519
12.5535
13.8366
15.197
16.6309
18.1351
19.7071
21.3451
23.0478
24.8144
26.6444
28.5374
30.4927
32.5096
34.5868
36.7222
38.9132
41.1563
43.4475
45.7825
48.1568
50.566
53.0059
55.4731
57.9642
60.4767
63.008
65.5562
68.1193
70.6951
73.2816
75.8764
78.4773
81.0816
83.6865
86.2891
88.8865
91.4757
94.0532
96.6159
99.1602
101.683
104.18
106.648
109.084
111.485
113.846
116.164
118.435
120.655
122.822
124.932
126.98
128.965
130.883
132.73
134.505
136.204
137.826
139.367
140.827
142.203
143.493
144.697
145.814
146.843
147.782
148.632
149.394
150.066
150.65
151.146
151.553
151.874
152.109
152.259
152.324
152.307
152.207
152.026
151.766
151.427
151.012
150.521
149.957
149.32
148.613
147.838
146.998
146.094
145.13
144.109
143.032
141.904
140.727
139.504
138.237
136.926
135.574
134.182
132.751
131.282
129.777
128.24
126.674
125.086
123.481
121.867
120.259
118.676
117.174
115.788
114.749
113.937
114.276
115.276
116.452
1.27279
0.01711
0.0489772
0.12441
0.155437
0.16975
0.178921
0.188693
0.202569
0.22289
0.251209
0.288655
0.336047
0.394278
0.464358
0.547716
0.646446
0.763542
0.903108
1.0704
1.27154
1.51281
1.79947
2.13398
2.51442
2.93314
3.37697
3.82876
4.26948
4.67948
5.03869
5.32665
5.52816
5.63541
5.64599
5.56321
5.39823
5.16987
4.90224
4.62107
4.34938
4.10661
3.90783
3.76431
3.68351
3.66977
3.72494
3.84892
4.04016
4.29605
4.61354
4.9898
5.42332
5.91503
6.4692
7.09358
7.79838
8.59466
9.49253
10.4999
11.6221
12.8617
14.2192
15.6935
17.2826
18.9834
20.7929
22.7082
24.7263
26.8447
29.061
31.3732
33.7794
36.2778
38.8662
41.5424
44.3037
47.1466
50.0668
53.0589
56.1166
59.2331
62.4015
65.6149
68.8668
72.1515
75.4637
78.7991
82.1539
85.5247
88.9086
92.3026
95.7036
99.1083
102.514
105.916
109.311
112.694
116.062
119.411
122.736
126.032
129.296
132.522
135.706
138.843
141.929
144.959
147.929
150.834
153.669
156.431
159.114
161.715
164.23
166.654
168.983
171.215
173.346
175.373
177.292
179.103
180.801
182.386
183.855
185.208
186.443
187.56
188.557
189.435
190.195
190.837
191.361
191.769
192.062
192.241
192.307
192.263
192.11
191.85
191.484
191.016
190.445
189.776
189.009
188.148
187.196
186.154
185.025
183.811
182.517
181.145
179.699
178.182
176.599
174.951
173.245
171.483
169.669
167.806
165.897
163.946
161.954
159.925
157.861
155.763
153.637
151.485
149.316
147.135
144.954
142.791
140.672
138.656
136.79
135.274
134.04
133.834
134.268
134.51
1.53841
0.0139964
0.11878
0.237016
0.299594
0.337502
0.362994
0.383216
0.403391
0.427155
0.45726
0.495644
0.543864
0.603455
0.675973
0.763352
0.868018
0.993088
1.14243
1.32048
1.53161
1.77904
2.06349
2.38202
2.72707
3.08626
3.44343
3.77966
4.07506
4.3115
4.47658
4.56536
4.57692
4.5157
4.39275
4.22483
4.03198
3.83462
3.65125
3.49782
3.38727
3.32957
3.33182
3.39876
3.53322
3.73663
4.00935
4.35094
4.76031
5.23595
5.7762
6.37977
7.04649
7.77816
8.57937
9.45777
10.4235
11.4883
12.6637
13.9605
15.3873
16.9511
18.6565
20.5065
22.5024
24.6443
26.9314
29.3625
31.936
34.6497
37.501
40.4876
43.6061
46.853
50.2244
53.7157
57.3214
61.0353
64.8495
68.755
72.7422
76.8014
80.9217
85.093
89.3059
93.5528
97.8267
102.122
106.433
110.757
115.087
119.422
123.756
128.085
132.404
136.709
140.992
145.25
149.475
153.663
157.808
161.904
165.946
169.926
173.839
177.679
181.441
185.119
188.707
192.2
195.592
198.879
202.055
205.114
208.053
210.867
213.551
216.102
218.515
220.789
222.92
224.905
226.743
228.43
229.967
231.351
232.583
233.661
234.586
235.358
235.98
236.451
236.773
236.948
236.979
236.867
236.615
236.225
235.701
235.046
234.262
233.352
232.319
231.166
229.898
228.518
227.03
225.437
223.742
221.95
220.064
218.088
216.027
213.886
211.669
209.38
207.024
204.606
202.132
199.605
197.03
194.413
191.757
189.067
186.345
183.595
180.821
178.03
175.228
172.425
169.633
166.874
164.18
161.608
159.212
157.16
155.417
154.596
154.299
153.681
1.66014
0.0195094
0.212817
0.38619
0.494836
0.567366
0.616334
0.651233
0.679619
0.707088
0.738164
0.775541
0.821732
0.87877
0.94849
1.03286
1.13407
1.2546
1.39715
1.56435
1.75782
1.97729
2.21948
2.47764
2.74158
2.99778
3.23031
3.42418
3.56804
3.65515
3.68276
3.65333
3.57606
3.46469
3.33545
3.20484
3.08847
3.00012
2.95138
2.95144
3.00719
3.12367
3.30442
3.55191
3.86786
4.25341
4.70931
5.23596
5.8336
6.50237
7.2425
8.05474
8.94078
9.90403
10.9502
12.0876
13.3267
14.6796
16.1588
17.7769
19.5457
21.475
23.5738
25.8493
28.3067
30.9497
33.7808
36.8015
40.0125
43.414
47.0044
50.7778
54.7289
58.8511
63.1374
67.5799
72.1693
76.8946
81.743
86.7003
91.7516
96.8819
102.078
107.327
112.619
117.945
123.297
128.666
134.048
139.436
144.825
150.209
155.583
160.942
166.277
171.582
176.849
182.07
187.239
192.348
197.389
202.357
207.242
212.038
216.738
221.333
225.816
230.182
234.423
238.533
242.506
246.336
250.015
253.54
256.904
260.102
263.131
265.985
268.661
271.157
273.469
275.594
277.531
279.279
280.835
282.2
283.373
284.354
285.145
285.747
286.162
286.391
286.438
286.306
285.997
285.515
284.863
284.045
283.066
281.929
280.64
279.201
277.617
275.892
274.032
272.043
269.929
267.695
265.345
262.884
260.318
257.652
254.892
252.041
249.106
246.093
243.006
239.853
236.639
233.371
230.054
226.696
223.303
219.879
216.431
212.961
209.476
205.983
202.489
199.005
195.548
192.141
188.818
185.636
182.651
179.998
177.664
176.159
175.025
173.589
1.65092
0.0362847
0.32503
0.564972
0.733068
0.850021
0.928567
0.981134
1.01836
1.04877
1.07866
1.1118
1.15143
1.19987
1.25895
1.33031
1.41543
1.51569
1.63222
1.76551
1.91521
2.07851
2.2502
2.42257
2.58498
2.72696
2.83972
2.91617
2.95204
2.94745
2.90785
2.84267
2.76375
2.68416
2.61708
2.57472
2.56772
2.60476
2.69265
2.8366
3.0406
3.30781
3.64088
4.04215
4.5138
5.05782
5.67611
6.37064
7.14339
7.99651
8.9324
9.95402
11.0654
12.2719
13.5806
15.0015
16.546
18.2276
20.0605
22.06
24.2411
26.62
29.2079
32.0146
35.0487
38.317
41.8247
45.5752
49.5702
53.8085
58.2862
62.9984
67.9368
73.091
78.4505
84.0023
89.7318
95.6222
101.654
107.808
114.063
120.403
126.81
133.269
139.768
146.296
152.844
159.403
165.967
172.528
179.078
185.612
192.122
198.6
205.036
211.422
217.746
224.001
230.176
236.263
242.253
248.138
253.909
259.555
265.069
270.441
275.662
280.725
285.623
290.348
294.892
299.249
303.412
307.375
311.132
314.678
318.008
321.118
324.004
326.664
329.095
331.295
333.263
334.997
336.497
337.763
338.795
339.594
340.164
340.505
340.621
340.515
340.191
339.654
338.907
337.956
336.804
335.456
333.92
332.2
330.303
328.235
326.002
323.61
321.067
318.377
315.548
312.583
309.489
306.271
302.936
299.489
295.938
292.29
288.55
284.726
280.824
276.851
272.816
268.725
264.586
260.407
256.197
251.964
247.713
243.454
239.192
234.936
230.696
226.482
222.312
218.208
214.205
210.355
206.715
203.393
200.389
198.134
196.088
193.852
1.51828
0.065034
0.449102
0.76501
1.00215
1.16972
1.28045
1.35051
1.39479
1.42539
1.45007
1.4738
1.50039
1.53231
1.57117
1.61804
1.67363
1.73833
1.81212
1.8943
1.98325
2.07577
2.16647
2.2488
2.31714
2.36582
2.3909
2.39167
2.37078
2.33375
2.28825
2.24365
2.21025
2.19833
2.21747
2.27596
2.38066
2.53703
2.74937
3.02128
3.35596
3.75647
4.22592
4.76747
5.38438
6.08006
6.85803
7.72181
8.67599
9.7253
10.8752
12.132
13.5035
14.9992
16.6313
18.4099
20.3481
22.4607
24.764
27.275
30.011
32.9872
36.2198
39.7231
43.5093
47.5875
51.964
56.6413
61.6222
66.9046
72.4832
78.3495
84.4918
90.8952
97.5396
104.404
111.467
118.704
126.087
133.59
141.189
148.863
156.594
164.368
172.172
179.996
187.832
195.669
203.497
211.309
219.095
226.847
234.555
242.208
249.796
257.304
264.723
272.041
279.247
286.332
293.285
300.095
306.751
313.243
319.56
325.692
331.628
337.359
342.878
348.176
353.245
358.077
362.666
367.005
371.087
374.908
378.463
381.748
384.76
387.495
389.953
392.131
394.029
395.647
396.984
398.042
398.82
399.323
399.553
399.513
399.209
398.646
397.829
396.763
395.454
393.909
392.136
390.143
387.937
385.529
382.925
380.133
377.155
373.998
370.67
367.179
363.532
359.736
355.8
351.732
347.538
343.227
338.802
334.271
329.642
324.923
320.122
315.249
310.311
305.319
300.28
295.206
290.109
284.997
279.881
274.769
269.665
264.578
259.52
254.502
249.548
244.682
239.939
235.367
231.021
226.98
223.246
220.19
217.188
214.162
1.27957
0.105414
0.580353
0.977803
1.28787
1.50587
1.64575
1.729
1.77529
1.80061
1.81403
1.82169
1.82775
1.83476
1.844
1.85614
1.87142
1.88983
1.91107
1.93444
1.958
1.97898
1.995
2.00293
1.99996
1.98542
1.96073
1.92931
1.89628
1.86813
1.85237
1.85694
1.88979
1.95835
2.06925
2.22815
2.43977
2.70809
3.03671
3.42894
3.88844
4.41929
5.02599
5.71341
6.48705
7.35314
8.31892
9.39313
10.5827
11.896
13.3424
14.9322
16.6768
18.5888
20.6806
22.9681
25.468
28.1985
31.1783
34.4259
37.9594
41.796
45.9522
50.4417
55.2784
60.4703
66.0221
71.9362
78.2087
84.8327
91.7965
99.0855
106.681
114.56
122.695
131.058
139.617
148.343
157.201
166.16
175.198
184.294
193.432
202.601
211.79
220.994
230.202
239.403
248.584
257.735
266.846
275.904
284.898
293.812
302.635
311.353
319.952
328.418
336.737
344.895
352.879
360.676
368.273
375.656
382.815
389.737
396.409
402.821
408.962
414.826
420.404
425.687
430.669
435.341
439.695
443.726
447.429
450.799
453.835
456.533
458.891
460.909
462.586
463.922
464.921
465.582
465.91
465.91
465.586
464.945
463.993
462.738
461.189
459.355
457.247
454.875
452.252
449.383
446.275
442.939
439.385
435.624
431.665
427.519
423.195
418.704
414.053
409.253
404.309
399.228
394.018
388.687
383.244
377.698
372.058
366.334
360.532
354.662
348.732
342.752
336.733
330.686
324.623
318.557
312.498
306.457
300.445
294.471
288.547
282.687
276.907
271.235
265.707
260.364
255.259
250.447
245.942
242.059
238.109
234.312
0.951188
0.156501
0.713257
1.19214
1.5717
1.83388
1.99449
2.08177
2.12167
2.1342
2.12938
2.11417
2.09297
2.06826
2.04111
2.01204
1.98135
1.94932
1.91617
1.88148
1.84522
1.80674
1.76517
1.72078
1.67479
1.62957
1.58879
1.55752
1.54171
1.54774
1.58202
1.65076
1.75995
1.91513
2.12128
2.38285
2.70403
3.08914
3.54293
4.07123
4.68005
5.37562
6.165
7.05607
8.05768
9.17964
10.4327
11.8282
13.38
15.1025
17.0115
19.1227
21.4523
24.0167
26.8315
29.9152
33.2883
36.9705
40.9812
45.3386
50.0601
55.1623
60.6613
66.5711
72.896
79.6356
86.7838
94.3344
102.278
110.605
119.295
128.327
137.678
147.32
157.22
167.343
177.654
188.119
198.693
209.35
220.065
230.824
241.614
252.429
263.261
274.1
284.932
295.742
306.508
317.217
327.853
338.4
348.845
359.172
369.361
379.392
389.251
398.923
408.389
417.634
426.643
435.4
443.889
452.099
460.011
467.615
474.897
481.846
488.454
494.707
500.599
506.119
511.26
516.017
520.384
524.356
527.93
531.101
533.867
536.228
538.182
539.735
540.89
541.651
542.019
541.995
541.586
540.798
539.639
538.118
536.244
534.03
531.488
528.626
525.452
521.977
518.214
514.174
509.868
505.308
500.509
495.489
490.261
484.834
479.218
473.424
467.465
461.353
455.101
448.722
442.228
435.627
428.923
422.129
415.257
408.316
401.319
394.279
387.204
380.106
372.993
365.875
358.764
351.672
344.61
337.588
330.613
323.7
316.862
310.115
303.477
296.975
290.646
284.526
278.66
273.083
267.808
263.103
258.237
253.716
0.558728
0.218898
0.846033
1.40124
1.8398
2.13127
2.29757
2.37542
2.3986
2.39019
2.36091
2.31794
2.26548
2.2057
2.13959
2.06783
1.99124
1.91082
1.82802
1.74435
1.66076
1.57882
1.50057
1.42853
1.36581
1.31651
1.28574
1.27929
1.30325
1.36361
1.46618
1.6166
1.82002
2.08149
2.406
2.7986
3.26471
3.81067
4.44403
5.17341
6.00855
6.96044
8.04127
9.26451
10.6449
12.1984
13.9417
15.8925
18.0715
20.5
23.1995
26.1919
29.4986
33.1411
37.1415
41.5211
46.2985
51.4914
57.1141
63.1791
69.697
76.6763
84.1251
92.0478
100.444
109.303
118.61
128.352
138.514
149.085
160.041
171.357
182.999
194.935
207.121
219.51
232.045
244.672
257.37
270.115
282.882
295.65
308.409
321.151
333.867
346.545
359.17
371.721
384.178
396.52
408.726
420.778
432.653
444.331
455.795
467.028
478.012
488.728
499.153
509.272
519.067
528.521
537.621
546.352
554.7
562.651
570.193
577.314
584.006
590.262
596.073
601.435
606.341
610.787
614.767
618.279
621.32
623.89
625.99
627.62
628.782
629.481
629.72
629.504
628.84
627.734
626.193
624.232
621.86
619.088
615.926
612.385
608.476
604.213
599.61
594.684
589.449
583.918
578.101
572.015
565.679
559.107
552.316
545.32
538.136
530.777
523.263
515.608
507.825
499.928
491.929
483.832
475.647
467.389
459.081
450.732
442.351
433.943
425.52
417.094
408.687
400.304
391.959
383.665
375.438
367.294
359.244
351.3
343.478
335.792
328.265
320.92
313.786
306.889
300.266
293.938
287.914
282.444
276.721
271.601
0.246931
0.289133
0.973588
1.59843
2.07909
2.38008
2.53201
2.58457
2.58091
2.54525
2.48864
2.41679
2.33263
2.23762
2.13275
2.01944
1.8998
1.77632
1.65218
1.53105
1.41614
1.31073
1.21876
1.14462
1.093
1.0692
1.07918
1.1293
1.22614
1.37636
1.58635
1.86224
2.21062
2.63871
3.1545
3.76668
4.48513
5.32161
6.29016
7.40702
8.68996
10.1584
11.8332
13.7372
15.8969
18.3393
21.0922
24.184
27.6411
31.4873
35.7452
40.4365
45.5822
51.2017
57.3137
63.9352
71.0814
78.7644
86.9914
95.7623
105.08
114.94
125.336
136.257
147.69
159.611
171.971
184.745
197.896
211.412
225.261
239.387
253.756
268.329
283.09
298
313.02
328.113
343.222
358.316
373.357
388.321
403.209
418.014
432.709
447.263
461.644
475.831
489.802
503.538
517.022
530.232
543.151
555.763
568.049
579.988
591.559
602.743
613.521
623.879
633.802
643.277
652.292
660.837
668.9
676.47
683.539
690.099
696.145
701.673
706.678
711.157
715.107
718.528
721.417
723.777
725.611
726.92
727.709
727.984
727.751
727.016
725.789
724.076
721.886
719.228
716.114
712.554
708.561
704.148
699.328
694.115
688.524
682.568
676.263
669.624
662.664
655.402
647.85
640.028
631.955
623.65
615.132
606.418
597.526
588.468
579.264
569.934
560.492
550.949
541.322
531.629
521.883
512.088
502.256
492.395
482.525
472.663
462.821
453.002
443.223
433.486
423.804
414.207
404.712
395.331
386.079
376.976
368.042
359.3
350.77
342.477
334.447
326.707
319.284
312.189
305.41
299.212
292.668
287.059
0.52813
0.371057
1.08796
1.7583
2.25142
2.53467
2.65253
2.67216
2.64032
2.58106
2.50296
2.4085
2.29773
2.17199
2.03266
1.88353
1.72936
1.57456
1.42465
1.28546
1.16163
1.05794
0.980095
0.934819
0.929038
0.969715
1.06425
1.22085
1.44887
1.7586
2.16012
2.66463
3.28549
4.03888
4.94324
6.01864
7.28715
8.77389
10.507
12.5171
14.8351
17.4922
20.5205
23.9534
27.8216
32.1558
36.9832
42.3288
48.2146
54.6574
61.6703
69.264
77.447
86.224
95.5979
105.573
116.143
127.307
139.049
151.36
164.231
177.617
191.505
205.844
220.611
235.803
251.385
267.335
283.601
300.176
317.003
334.039
351.218
368.491
385.791
403.12
420.454
437.757
455.011
472.175
489.205
506.057
522.719
539.153
555.325
571.2
586.745
601.933
616.738
631.149
645.151
658.731
671.874
684.561
696.776
708.502
719.724
730.429
740.606
750.249
759.351
767.905
775.905
783.343
790.215
796.512
802.232
807.372
811.935
815.922
819.333
822.172
824.439
826.138
827.272
827.847
827.871
827.354
826.302
824.723
822.629
820.03
816.937
813.359
809.308
804.797
799.837
794.442
788.626
782.402
775.784
768.785
761.42
753.703
745.65
737.277
728.599
719.632
710.393
700.9
691.17
681.222
671.073
660.74
650.243
639.6
628.83
617.951
606.982
595.939
584.838
573.695
562.522
551.329
540.132
528.942
517.769
506.62
495.504
484.44
473.446
462.526
451.689
440.95
430.324
419.837
409.511
399.361
389.399
379.647
370.14
360.917
351.997
343.405
335.16
327.284
319.733
312.839
305.494
299.501
1.19402
0.425987
1.1692
1.86157
2.33556
2.57662
2.65455
2.64796
2.60104
2.53276
2.4442
2.33352
2.2
2.04683
1.87776
1.70017
1.52263
1.35175
1.19447
1.06044
0.956795
0.89009
0.868499
0.902481
1.00329
1.18264
1.45435
1.83623
2.35013
3.01963
3.87021
4.93181
6.24004
7.83531
9.75941
12.0534