/*--------------------------------*- C++ -*----------------------------------*\
| =========                 |                                                 |
| \\      /  F ield         | OpenFOAM: The Open Source CFD Toolbox           |
|  \\    /   O peration     | Version:  2312                                  |
|   \\  /    A nd           | Website:  www.openfoam.com                      |
|    \\/     M anipulation  |                                                 |
\*---------------------------------------------------------------------------*/
FoamFile
{
    version     2.0;
    format      ascii;
    arch        "LSB;label=32;scalar=64";
    class       volScalarField;
    location    "0.2";
    object      pMean;
}
// * * * * * * * * * * * * * * * * * * * * * * * * * * * * * * * * * * * * * //

dimensions      [0 2 -2 0 0 0 0];

internalField   nonuniform List<scalar> 
12225
(
3.22573
3.15249
1.87325
-2.41535
-5.3332
-6.1634
-5.97356
-5.67293
-5.52501
-5.51951
-5.60147
-5.72894
-5.88481
-6.05898
-6.25425
-6.47563
-6.70029
-7.01672
2.62677
2.74572
1.39759
-2.40087
-5.18652
-6.0585
-5.90475
-5.6291
-5.49871
-5.50468
-5.59262
-5.72207
-5.87729
-6.05099
-6.2452
-6.46419
-6.68958
-6.95822
2.29179
2.09637
0.851557
-2.25844
-4.74467
-5.69015
-5.68653
-5.50545
-5.42476
-5.45466
-5.55129
-5.68407
-5.84098
-6.0171
-6.20787
-6.42084
-6.62171
-6.81667
1.79954
1.52027
0.40513
-2.13063
-4.34541
-5.34492
-5.48266
-5.39267
-5.35835
-5.41096
-5.51607
-5.65072
-5.80552
-5.97784
-6.15849
-6.3518
-6.52414
-6.67391
1.39252
1.03797
0.0125221
-2.09174
-4.03613
-5.02773
-5.26863
-5.26366
-5.27892
-5.35791
-5.47541
-5.61472
-5.76795
-5.93431
-6.104
-6.27765
-6.42897
-6.55108
0.968282
0.602279
-0.342216
-2.1035
-3.79313
-4.74021
-5.05269
-5.12604
-5.1913
-5.29627
-5.42589
-5.5691
-5.72065
-5.88031
-6.03969
-6.19613
-6.33116
-6.43632
0.559876
0.196428
-0.664861
-2.13476
-3.59131
-4.48439
-4.84852
-4.98868
-5.09971
-5.22903
-5.37044
-5.51781
-5.66857
-5.82241
-5.97284
-6.11552
-6.23836
-6.3338
0.191278
-0.178347
-0.954588
-2.18317
-3.42913
-4.2623
-4.66333
-4.85598
-5.00471
-5.15565
-5.30856
-5.46079
-5.61171
-5.76104
-5.9041
-6.03638
-6.15022
-6.2395
-0.190382
-0.525943
-1.21454
-2.24529
-3.30766
-4.07343
-4.49574
-4.72894
-4.90752
-5.07671
-5.24018
-5.39739
-5.54896
-5.69493
-5.83221
-5.95693
-6.06439
-6.15004
-0.534918
-0.843135
-1.447
-2.31499
-3.21991
-3.91485
-4.34337
-4.60665
-4.80939
-4.99386
-5.16661
-5.32852
-5.481
-5.62459
-5.75755
-5.877
-5.98027
-6.06417
-0.875676
-1.13219
-1.65506
-2.38804
-3.15846
-3.78318
-4.20636
-4.49018
-4.71207
-4.90909
-5.0897
-5.25585
-5.40945
-5.55154
-5.68149
-5.79745
-5.8982
-5.98159
-1.14795
-1.36796
-1.82574
-2.4554
-3.12143
-3.68504
-4.09572
-4.39041
-4.62517
-4.83115
-5.01759
-5.18715
-5.34196
-5.48338
-5.6116
-5.7256
-5.82514
-5.90874
-1.40561
-1.59001
-1.98027
-2.52016
-3.09688
-3.60449
-3.99893
-4.29875
-4.54237
-4.755
-4.94601
-5.11849
-5.27457
-5.41579
-5.54298
-5.65585
-5.75485
-5.8391
-1.65841
-1.80244
-2.13133
-2.58782
-3.08046
-3.53172
-3.90467
-4.20418
-4.45341
-4.67105
-4.86578
-5.04084
-5.19827
-5.33973
-5.46645
-5.57885
-5.67785
-5.76322
-1.88326
-2.01171
-2.28262
-2.65846
-3.07354
-3.47014
-3.817
-4.11029
-4.36124
-4.5819
-4.7792
-4.95622
-5.11488
-5.25683
-5.38361
-5.49616
-5.59569
-5.68252
-2.05283
-2.17464
-2.4062
-2.71868
-3.06894
-3.41675
-3.73638
-4.0195
-4.26893
-4.4908
-4.6897
-4.86816
-5.02794
-5.17064
-5.29789
-5.41099
-5.51136
-5.59973
-2.21553
-2.31053
-2.49773
-2.75747
-3.05778
-3.36681
-3.66273
-3.93517
-4.18188
-4.40411
-4.60398
-4.78336
-4.94388
-5.08717
-5.21491
-5.32862
-5.42985
-5.51961
-2.30174
-2.36175
-2.51637
-2.74634
-3.01896
-3.30629
-3.58942
-3.85742
-4.10483
-4.32964
-4.53184
-4.71263
-4.87385
-5.01748
-5.14541
-5.25933
-5.3608
-5.45119
-2.20283
-2.27207
-2.42547
-2.65038
-2.92136
-3.21332
-3.5068
-3.78807
-4.04824
-4.28276
-4.49083
-4.67424
-4.83592
-4.97883
-5.10546
-5.21796
-5.31802
-5.40736
-1.89345
-1.99024
-2.17732
-2.43773
-2.74872
-3.08629
-3.42708
-3.75082
-4.04308
-4.2972
-4.51419
-4.69951
-4.85936
-4.99871
-5.12103
-5.22896
-5.32452
-5.40973
-1.65131
-1.72235
-1.91137
-2.20454
-2.56908
-2.9713
-3.3789
-3.76035
-4.09193
-4.36541
-4.58696
-4.7689
-4.92221
-5.05408
-5.16879
-5.26941
-5.35826
-5.43761
-1.20829
-1.3279
-1.56702
-1.91691
-2.35575
-2.85089
-3.35606
-3.81721
-4.19546
-4.48437
-4.70231
-4.8731
-5.0137
-5.13321
-5.23645
-5.32679
-5.40681
-5.47873
-0.800274
-0.937118
-1.20131
-1.59903
-2.12181
-2.73787
-3.37502
-3.93665
-4.36163
-4.65377
-4.85456
-5.00396
-5.12477
-5.22685
-5.31492
-5.39246
-5.46207
-5.52568
-0.378939
-0.512551
-0.793658
-1.23738
-1.85372
-2.62812
-3.44306
-4.12626
-4.59081
-4.86726
-5.03359
-5.14988
-5.24367
-5.32395
-5.39433
-5.45784
-5.51666
-5.57204
0.00373104
-0.0941834
-0.368833
-0.834756
-1.54225
-2.52026
-3.56709
-4.38876
-4.88009
-5.11989
-5.23353
-5.30391
-5.36273
-5.41686
-5.46786
-5.51718
-5.56594
-5.6142
0.404671
0.322075
0.0679012
-0.382309
-1.17814
-2.41881
-3.74653
-4.71509
-5.21611
-5.39906
-5.44623
-5.46141
-5.47876
-5.50297
-5.53336
-5.56875
-5.60849
-5.65073
0.806392
0.720569
0.515197
0.145062
-0.752629
-2.36846
-4.02597
-5.11294
-5.57719
-5.67483
-5.64806
-5.60785
-5.58383
-5.5784
-5.58902
-5.61146
-5.64319
-5.67953
1.2373
1.09486
0.964915
0.797712
-0.23911
-2.41806
-4.47241
-5.6221
-5.96622
-5.93183
-5.81292
-5.71347
-5.65181
-5.62419
-5.62261
-5.63827
-5.66685
-5.70134
1.48742
1.39091
1.35724
1.55384
0.43967
-2.45683
-4.98203
-6.19834
-6.41151
-6.23406
-6.00043
-5.82267
-5.71884
-5.67285
-5.66515
-5.68028
-5.71002
-5.74607
1.97947
1.6145
1.70578
2.05765
0.929535
-2.42286
-5.13279
-6.33764
-6.54086
-6.35379
-6.09385
-5.88855
-5.76474
-5.70563
-5.68934
-5.69905
-5.72477
-5.75773
-6.97787
-6.97797
-6.97769
-6.97714
-6.97649
-6.97626
-6.97667
-6.97783
-6.97974
-6.98225
-6.98519
-6.98838
-6.99164
-6.99485
-6.99789
-7.00068
-7.00321
-7.00547
-7.00749
-7.00934
-7.01111
-7.01289
-7.01478
-7.01687
-7.01923
-7.0219
-7.02493
-7.02833
-7.03214
-7.03643
-7.04126
-7.04666
-7.05261
-7.0591
-7.06612
-7.07366
-7.08176
-7.09045
-7.09978
-7.10981
-7.12059
-7.13222
-7.14479
-7.15835
-7.17293
-7.18841
-7.20454
-7.22101
-7.23749
-7.25352
-7.26845
-7.28142
-7.29173
-7.29923
-7.30487
-7.31107
-7.32013
-7.33378
-7.35267
-7.37586
-7.40207
-7.43015
-7.45905
-7.48789
-7.51588
-7.54236
-7.56678
-7.58864
-7.60753
-7.62309
-7.63501
-7.64302
-7.64689
-7.64642
-7.64141
-7.63168
-7.61709
-7.5975
-7.57277
-7.54281
-7.50751
-7.46678
-7.42053
-7.3687
-7.31121
-7.24801
-7.17904
-7.10424
-7.02359
-6.93703
-6.84454
-6.74608
-6.64164
-6.53119
-6.41472
-6.29223
-6.16371
-6.02917
-5.88863
-5.74211
-5.58963
-5.43125
-5.26701
-5.09696
-4.92117
-4.73971
-4.55266
-4.36009
-4.16211
-3.95882
-3.75035
-3.53679
-3.31829
-3.09498
-2.86701
-2.63452
-2.39769
-2.15667
-1.91166
-1.66282
-1.41035
-1.15443
-0.895265
-0.633049
-0.367986
-0.100282
0.169853
0.44221
0.716575
0.992735
1.27048
1.54958
1.82984
2.11104
2.39295
2.67538
2.95811
3.24093
3.52362
3.80599
4.08782
4.36892
4.64908
4.92812
5.20584
5.48205
5.75656
6.0292
6.29979
6.56816
6.83413
7.09755
7.35825
7.61608
7.87088
8.12249
8.37077
8.61558
8.85677
9.09421
9.32774
9.55723
9.7825
10.0034
10.2198
10.4316
10.6385
10.8406
11.0376
11.2296
11.4163
11.5977
11.7738
11.9443
12.1095
12.2693
12.4258
12.5747
12.738
12.8632
-6.97914
-6.97898
-6.97878
-6.97853
-6.97846
-6.97881
-6.97975
-6.9813
-6.98339
-6.98591
-6.98872
-6.99166
-6.99464
-6.99752
-7.00025
-7.00275
-7.00498
-7.00695
-7.00867
-7.0102
-7.01162
-7.01303
-7.01452
-7.01619
-7.01814
-7.02045
-7.0232
-7.02646
-7.03029
-7.03477
-7.03988
-7.04553
-7.05163
-7.05816
-7.06512
-7.07255
-7.08046
-7.08892
-7.09797
-7.10764
-7.11799
-7.12904
-7.14084
-7.15337
-7.16654
-7.18021
-7.19428
-7.20883
-7.22409
-7.24028
-7.25706
-7.27339
-7.28774
-7.29882
-7.30699
-7.31451
-7.32404
-7.33805
-7.35711
-7.38027
-7.40627
-7.43399
-7.46243
-7.49075
-7.5182
-7.54418
-7.56813
-7.58958
-7.60812
-7.62338
-7.63505
-7.64286
-7.64655
-7.64592
-7.64078
-7.63096
-7.61631
-7.59668
-7.57196
-7.54203
-7.50678
-7.46613
-7.41999
-7.3683
-7.31097
-7.24795
-7.17918
-7.10461
-7.0242
-6.93791
-6.8457
-6.74754
-6.64341
-6.53329
-6.41716
-6.29503
-6.16688
-6.03273
-5.89258
-5.74646
-5.59441
-5.43644
-5.27262
-5.10299
-4.92761
-4.74657
-4.55993
-4.36779
-4.17025
-3.9674
-3.75936
-3.54626
-3.32822
-3.10538
-2.87788
-2.64589
-2.40955
-2.16903
-1.92451
-1.67616
-1.42417
-1.16874
-0.910054
-0.648313
-0.38372
-0.11648
0.153198
0.425104
0.699025
0.974748
1.25206
1.53074
1.81058
2.09136
2.37287
2.65489
2.93722
3.21964
3.50195
3.78394
4.0654
4.34613
4.62594
4.90462
5.18199
5.45786
5.73205
6.00436
6.27464
6.5427
6.80838
7.07151
7.33194
7.5895
7.84404
8.09542
8.34349
8.5881
8.82912
9.06642
9.29987
9.52931
9.75459
9.97555
10.1921
10.404
10.6111
10.8135
11.0108
11.2031
11.3903
11.5724
11.7491
11.9204
12.0865
12.2473
12.4051
12.5553
12.7189
12.8479
-6.97998
-6.97948
-6.97961
-6.98002
-6.98081
-6.98205
-6.9838
-6.98597
-6.98843
-6.99103
-6.99366
-6.99624
-6.99868
-7.00095
-7.003
-7.00482
-7.00639
-7.00773
-7.00888
-7.00988
-7.01079
-7.0117
-7.01271
-7.01393
-7.01551
-7.0176
-7.02037
-7.02393
-7.02828
-7.0332
-7.03839
-7.04374
-7.04931
-7.05519
-7.06145
-7.06816
-7.07536
-7.08307
-7.09131
-7.10008
-7.10942
-7.11934
-7.1299
-7.14113
-7.15309
-7.16582
-7.17948
-7.1942
-7.20991
-7.22631
-7.24293
-7.25931
-7.27499
-7.28967
-7.30351
-7.31729
-7.33217
-7.34929
-7.36926
-7.39194
-7.41676
-7.44297
-7.4698
-7.4965
-7.5224
-7.54691
-7.56951
-7.58975
-7.60721
-7.62155
-7.63245
-7.63961
-7.64278
-7.64175
-7.63631
-7.62628
-7.6115
-7.59183
-7.56714
-7.5373
-7.50222
-7.46179
-7.41592
-7.36456
-7.30761
-7.24502
-7.17674
-7.10271
-7.02287
-6.9372
-6.84566
-6.7482
-6.64481
-6.53546
-6.42013
-6.29883
-6.17153
-6.03825
-5.899
-5.75379
-5.60267
-5.44565
-5.2828
-5.11415
-4.93978
-4.75975
-4.57413
-4.38301
-4.18649
-3.98467
-3.77766
-3.56559
-3.34857
-3.12674
-2.90026
-2.66926
-2.43391
-2.19437
-1.95081
-1.70341
-1.45236
-1.19784
-0.940054
-0.679193
-0.41546
-0.149061
0.119799
0.390908
0.664057
0.93903
1.21562
1.4936
1.77277
2.05291
2.3338
2.61524
2.89701
3.1789
3.46071
3.74223
4.02325
4.30357
4.58299
4.86132
5.13836
5.41393
5.68785
5.95992
6.22998
6.49785
6.76337
7.02637
7.28669
7.54417
7.79866
8.05002
8.2981
8.54275
8.78384
9.02122
9.25477
9.48435
9.7098
9.93098
10.1477
10.36
10.5675
10.7702
10.968
11.1608
11.3485
11.531
11.7083
11.8804
12.0475
12.2091
12.3685
12.519
12.6829
12.8112
-6.98224
-6.9817
-6.98238
-6.98346
-6.98491
-6.98668
-6.98869
-6.99085
-6.99308
-6.99532
-6.9975
-6.99955
-7.00145
-7.00314
-7.00462
-7.00587
-7.0069
-7.00771
-7.00836
-7.00889
-7.00938
-7.00993
-7.01066
-7.01171
-7.01324
-7.01541
-7.0183
-7.02184
-7.02581
-7.03002
-7.03436
-7.03887
-7.04359
-7.0486
-7.05395
-7.05971
-7.06593
-7.07266
-7.07994
-7.08786
-7.0965
-7.10599
-7.11644
-7.12792
-7.14046
-7.15409
-7.16882
-7.18466
-7.20154
-7.21923
-7.23739
-7.2556
-7.27353
-7.29106
-7.30838
-7.32591
-7.34428
-7.36397
-7.38526
-7.4081
-7.43219
-7.4571
-7.48228
-7.50718
-7.53125
-7.554
-7.57494
-7.59365
-7.60974
-7.62287
-7.63272
-7.63899
-7.64144
-7.63982
-7.63393
-7.62358
-7.60859
-7.58881
-7.5641
-7.53434
-7.49941
-7.45921
-7.41366
-7.36267
-7.30618
-7.2441
-7.17639
-7.10299
-7.02385
-6.93892
-6.84816
-6.75154
-6.64903
-6.54059
-6.42622
-6.3059
-6.17963
-6.04741
-5.90924
-5.76514
-5.61514
-5.45926
-5.29755
-5.13006
-4.95684
-4.77796
-4.5935
-4.40354
-4.20818
-4.00752
-3.80166
-3.59072
-3.37483
-3.15413
-2.92874
-2.69883
-2.46454
-2.22605
-1.98352
-1.73712
-1.48705
-1.23349
-0.976633
-0.716674
-0.453814
-0.188259
0.0797869
0.350114
0.622511
0.896766
1.17266
1.45
1.72854
2.0081
2.28844
2.56936
2.85065
3.13209
3.41348
3.69462
3.97529
4.2553
4.53444
4.81252
5.08935
5.36474
5.6385
5.91045
6.18042
6.44823
6.71372
6.97671
7.23705
7.49459
7.74917
8.00063
8.24885
8.49366
8.73493
8.97252
9.20629
9.4361
9.66181
9.88328
10.1004
10.3129
10.5208
10.7239
10.9222
11.1154
11.3035
11.4865
11.6643
11.8369
12.0046
12.1669
12.3268
12.4774
12.6397
12.7632
-6.98395
-6.98389
-6.98512
-6.98663
-6.98833
-6.99019
-6.99215
-6.99414
-6.99612
-6.99803
-6.99984
-7.00149
-7.00297
-7.00423
-7.00527
-7.00608
-7.00667
-7.00707
-7.00732
-7.00748
-7.00764
-7.00791
-7.00842
-7.00932
-7.01073
-7.01273
-7.01532
-7.01839
-7.02179
-7.02536
-7.02905
-7.03286
-7.03688
-7.04118
-7.04588
-7.05106
-7.05683
-7.06326
-7.07044
-7.07848
-7.08752
-7.09763
-7.10889
-7.12135
-7.13504
-7.14992
-7.16596
-7.18308
-7.20118
-7.2201
-7.2396
-7.2594
-7.27928
-7.29912
-7.31897
-7.33907
-7.35971
-7.38114
-7.40345
-7.42658
-7.45033
-7.47439
-7.49837
-7.52186
-7.54442
-7.56564
-7.5851
-7.60241
-7.61722
-7.62918
-7.638
-7.64338
-7.64507
-7.64282
-7.63642
-7.62568
-7.6104
-7.59043
-7.56562
-7.53585
-7.50099
-7.46095
-7.41562
-7.36493
-7.30879
-7.24715
-7.17993
-7.10708
-7.02854
-6.94426
-6.85421
-6.75833
-6.6566
-6.54899
-6.43547
-6.31604
-6.19068
-6.05938
-5.92216
-5.77903
-5.63001
-5.47513
-5.31443
-5.14795
-4.97575
-4.79789
-4.61445
-4.42552
-4.23117
-4.0315
-3.82664
-3.61668
-3.40175
-3.182
-2.95755
-2.72855
-2.49516
-2.25755
-2.01588
-1.77032
-1.52107
-1.2683
-1.01221
-0.752989
-0.490848
-0.225983
0.0413987
0.31109
0.582879
0.856553
1.1319
1.40871
1.68676
1.96585
2.24576
2.52628
2.80719
3.08829
3.36937
3.65022
3.93063
4.21041
4.48935
4.76726
5.04394
5.31921
5.59288
5.86477
6.13469
6.40248
6.66798
6.931
7.1914
7.44901
7.70369
7.95528
8.20363
8.44861
8.69006
8.92784
9.16181
9.39184
9.61778
9.83949
10.0568
10.2697
10.4779
10.6813
10.8798
11.0734
11.2618
11.4451
11.6231
11.796
11.964
12.1264
12.2861
12.436
12.5957
12.7126
-6.98445
-6.98504
-6.98655
-6.98817
-6.98991
-6.99175
-6.99362
-6.99546
-6.99724
-6.99891
-7.00044
-7.0018
-7.00297
-7.00392
-7.00465
-7.00516
-7.00546
-7.00558
-7.00557
-7.00551
-7.00549
-7.00562
-7.00601
-7.00678
-7.00802
-7.00975
-7.01194
-7.01448
-7.01725
-7.02019
-7.02328
-7.02658
-7.03018
-7.03421
-7.03876
-7.04395
-7.04988
-7.05667
-7.06445
-7.07331
-7.08333
-7.09455
-7.107
-7.12069
-7.1356
-7.15171
-7.16896
-7.18727
-7.20651
-7.22653
-7.24716
-7.26823
-7.28958
-7.31111
-7.33281
-7.35475
-7.37703
-7.39974
-7.42288
-7.44638
-7.47005
-7.49367
-7.51692
-7.53948
-7.56098
-7.58108
-7.59941
-7.61562
-7.62939
-7.64039
-7.64833
-7.65292
-7.65392
-7.65108
-7.64417
-7.633
-7.61739
-7.59716
-7.57217
-7.54228
-7.50738
-7.46736
-7.42212
-7.37158
-7.31566
-7.25428
-7.18739
-7.11492
-7.03681
-6.95302
-6.86348
-6.76816
-6.66703
-6.56004
-6.44718
-6.32842
-6.20375
-6.07318
-5.93669
-5.79431
-5.64605
-5.49194
-5.33201
-5.16631
-4.99489
-4.81782
-4.63516
-4.447
-4.25341
-4.05451
-3.85039
-3.64117
-3.42697
-3.20793
-2.98418
-2.75588
-2.52316
-2.28621
-2.04518
-1.80025
-1.55161
-1.29943
-1.04392
-0.785258
-0.523655
-0.25931
0.0075725
0.276784
0.548113
0.821348
1.09628
1.37269
1.65037
1.9291
2.20868
2.48889
2.76952
3.05035
3.33118
3.61181
3.89202
4.17162
4.45041
4.72818
5.00474
5.27992
5.55351
5.82533
6.09522
6.363
6.62849
6.89153
7.15196
7.40963
7.66438
7.91606
8.16452
8.40961
8.65119
8.88911
9.12324
9.35343
9.57954
9.80144
10.019
10.232
10.4404
10.644
10.8428
11.0365
11.2252
11.4086
11.5868
11.7597
11.9276
12.0898
12.2488
12.3974
12.5543
12.6638
-6.98254
-6.98353
-6.98512
-6.98688
-6.9888
-6.99076
-6.99268
-6.99451
-6.99622
-6.99777
-6.99915
-7.00034
-7.00132
-7.00208
-7.00263
-7.00296
-7.00311
-7.0031
-7.00299
-7.00285
-7.00278
-7.00285
-7.00319
-7.00386
-7.00492
-7.00638
-7.0082
-7.01031
-7.01267
-7.01525
-7.01809
-7.02127
-7.02489
-7.02907
-7.03392
-7.03958
-7.04618
-7.05382
-7.06256
-7.07247
-7.08358
-7.09592
-7.10952
-7.12436
-7.14042
-7.15764
-7.17595
-7.19527
-7.21549
-7.23648
-7.2581
-7.28023
-7.30274
-7.32555
-7.34861
-7.37189
-7.39541
-7.41913
-7.443
-7.46692
-7.49072
-7.51419
-7.53708
-7.55909
-7.57993
-7.59929
-7.61683
-7.63225
-7.64524
-7.6555
-7.66273
-7.66668
-7.66709
-7.66371
-7.65632
-7.64473
-7.62875
-7.60821
-7.58296
-7.55286
-7.51781
-7.47769
-7.43241
-7.38188
-7.32603
-7.26477
-7.19805
-7.12579
-7.04795
-6.96445
-6.87525
-6.7803
-6.67956
-6.573
-6.46059
-6.3423
-6.21812
-6.08805
-5.95208
-5.81022
-5.6625
-5.50893
-5.34954
-5.18439
-5.01352
-4.83699
-4.65487
-4.46725
-4.2742
-4.07582
-3.87222
-3.66352
-3.44983
-3.23128
-3.00802
-2.78019
-2.54795
-2.31146
-2.07088
-1.82639
-1.57818
-1.32642
-1.07132
-0.813057
-0.551839
-0.287867
-0.0213471
0.247514
0.518505
0.791416
1.06603
1.34215
1.61955
1.89801
2.17733
2.4573
2.7377
3.01833
3.29896
3.57941
3.85945
4.1389
4.41755
4.6952
4.97165
5.24673
5.52024
5.792
6.06184
6.32958
6.59504
6.85808
7.11852
7.3762
7.63099
7.88271
8.13122
8.37638
8.61805
8.85606
9.09029
9.32059
9.54683
9.76885
9.98652
10.1997
10.4082
10.612
10.8109
11.0048
11.1935
11.377
11.5552
11.728
11.8957
12.0574
12.2153
12.3623
12.5167
12.6188
-6.97772
-6.97889
-6.98063
-6.98281
-6.98511
-6.98737
-6.98948
-6.99142
-6.99316
-6.9947
-6.99603
-6.99715
-6.99804
-6.99873
-6.9992
-6.99948
-6.99959
-6.99957
-6.99948
-6.99939
-6.99937
-6.9995
-6.99986
-7.00052
-7.0015
-7.00282
-7.00445
-7.00638
-7.00861
-7.01115
-7.01408
-7.01746
-7.02144
-7.02612
-7.03165
-7.03812
-7.04561
-7.05419
-7.06392
-7.07485
-7.08702
-7.10042
-7.11506
-7.13092
-7.14795
-7.1661
-7.1853
-7.20548
-7.22653
-7.24835
-7.27083
-7.29387
-7.31735
-7.34119
-7.36531
-7.38965
-7.41414
-7.43871
-7.46326
-7.48766
-7.51174
-7.53529
-7.55809
-7.57987
-7.60037
-7.6193
-7.63636
-7.65126
-7.66372
-7.67344
-7.68015
-7.68358
-7.68349
-7.67964
-7.67181
-7.65981
-7.64344
-7.62254
-7.59697
-7.5666
-7.5313
-7.49098
-7.44555
-7.39491
-7.33899
-7.27772
-7.21103
-7.13884
-7.0611
-6.97774
-6.88872
-6.79397
-6.69346
-6.58715
-6.475
-6.357
-6.23312
-6.10336
-5.96771
-5.82618
-5.67879
-5.52556
-5.36651
-5.2017
-5.03117
-4.85499
-4.67321
-4.48592
-4.29321
-4.09517
-3.8919
-3.68352
-3.47015
-3.25193
-3.02898
-2.80146
-2.56953
-2.33334
-2.09306
-1.84886
-1.60094
-1.34947
-1.09464
-0.836651
-0.575701
-0.311993
-0.0457305
0.222877
0.493621
0.766291
1.04068
1.31656
1.59374
1.872
2.15111
2.43089
2.7111
2.99154
3.27201
3.5523
3.83219
4.1115
4.39001
4.66754
4.94388
5.21886
5.49227
5.76395
6.03371
6.30138
6.5668
6.82979
7.0902
7.34787
7.60264
7.85436
8.10289
8.34808
8.58977
8.82783
9.06212
9.29248
9.51879
9.74089
9.95865
10.1719
10.3806
10.5844
10.7834
10.9773
11.166
11.3495
11.5276
11.7002
11.8675
12.0286
12.1854
12.3306
12.4827
12.5779
-6.96994
-6.97118
-6.9733
-6.97612
-6.97902
-6.98176
-6.98422
-6.98639
-6.98828
-6.9899
-6.99127
-6.9924
-6.9933
-6.99399
-6.99448
-6.99481
-6.99499
-6.99507
-6.9951
-6.99516
-6.9953
-6.99559
-6.9961
-6.99687
-6.99792
-6.99929
-7.00097
-7.00298
-7.00535
-7.00812
-7.01139
-7.01527
-7.01986
-7.02527
-7.03158
-7.03889
-7.04726
-7.05676
-7.06744
-7.07932
-7.09242
-7.10674
-7.12226
-7.13896
-7.15679
-7.17572
-7.19566
-7.21657
-7.23834
-7.2609
-7.28414
-7.30798
-7.3323
-7.35703
-7.38205
-7.40728
-7.43263
-7.45797
-7.48318
-7.50812
-7.53259
-7.5564
-7.57933
-7.60112
-7.62153
-7.64027
-7.65709
-7.6717
-7.68382
-7.69318
-7.6995
-7.70254
-7.70203
-7.69777
-7.68953
-7.67711
-7.66034
-7.63905
-7.6131
-7.58238
-7.54676
-7.50615
-7.46047
-7.40963
-7.35355
-7.29216
-7.22538
-7.15314
-7.07539
-6.99204
-6.90305
-6.80837
-6.70794
-6.60172
-6.48969
-6.37181
-6.24806
-6.11844
-5.98294
-5.84157
-5.69434
-5.54127
-5.3824
-5.21776
-5.04741
-4.8714
-4.6898
-4.50269
-4.31016
-4.1123
-3.90921
-3.70101
-3.48782
-3.26978
-3.04701
-2.81967
-2.58792
-2.35191
-2.11181
-1.86779
-1.62005
-1.36876
-1.11411
-0.856308
-0.59554
-0.332015
-0.0659362
0.202487
0.473047
0.745535
1.01974
1.29545
1.57244
1.85052
2.12947
2.40907
2.68911
2.96939
3.2497
3.52983
3.80958
4.08874
4.36711
4.6445
4.92071
5.19556
5.46886
5.74042
6.01008
6.27765
6.54297
6.80589
7.06622
7.32383
7.57854
7.83022
8.07871
8.32387
8.56555
8.80361
9.0379
9.26828
9.49461
9.71675
9.93454
10.1478
10.3565
10.5604
10.7594
10.9533
11.142
11.3253
11.5033
11.6756
11.8425
12.0028
12.1583
12.3017
12.4518
12.5408
-6.95971
-6.96101
-6.96373
-6.96738
-6.97106
-6.97442
-6.97734
-6.97983
-6.98195
-6.98372
-6.98519
-6.9864
-6.98738
-6.98815
-6.98875
-6.98919
-6.98953
-6.9898
-6.99006
-6.99036
-6.99076
-6.99133
-6.99209
-6.99311
-6.9944
-6.996
-6.99792
-7.00022
-7.00294
-7.00617
-7.00999
-7.01449
-7.01975
-7.02589
-7.03298
-7.04109
-7.05029
-7.06062
-7.07211
-7.08479
-7.09866
-7.11372
-7.12996
-7.14735
-7.16585
-7.18542
-7.206
-7.22754
-7.24997
-7.2732
-7.29714
-7.32172
-7.34682
-7.37234
-7.39819
-7.42424
-7.45038
-7.47646
-7.50235
-7.52787
-7.55283
-7.57703
-7.60023
-7.62219
-7.64267
-7.66141
-7.67813
-7.69258
-7.70449
-7.71358
-7.71961
-7.72232
-7.72147
-7.71683
-7.7082
-7.69537
-7.67819
-7.65648
-7.63012
-7.599
-7.56301
-7.52206
-7.47606
-7.42494
-7.36862
-7.30702
-7.24007
-7.16769
-7.08982
-7.00638
-6.91732
-6.82258
-6.7221
-6.61585
-6.5038
-6.38591
-6.26216
-6.13255
-5.99707
-5.85572
-5.70852
-5.55548
-5.39665
-5.23206
-5.06175
-4.88579
-4.70425
-4.5172
-4.32473
-4.12693
-3.92392
-3.71579
-3.50268
-3.28471
-3.06203
-2.83478
-2.60311
-2.3672
-2.1272
-1.88329
-1.63565
-1.38448
-1.12995
-0.872267
-0.611628
-0.348236
-0.0822962
0.185984
0.456397
0.728734
1.00278
1.27833
1.55517
1.83309
2.11187
2.39131
2.67119
2.9513
3.23145
3.51142
3.791
4.07
4.34821
4.62544
4.9015
5.17619
5.44934
5.72075
5.99026
6.2577
6.52289
6.78567
7.04589
7.30338
7.558
7.80958
8.05798
8.30306
8.54467
8.78268
9.01692
9.24727
9.47358
9.6957
9.91348
10.1268
10.3354
10.5393
10.7382
10.9321
11.1207
11.3039
11.4816
11.6535
11.8198
11.9793
12.1336
12.2751
12.4234
12.5069
-6.94776
-6.9492
-6.95266
-6.95726
-6.96182
-6.96589
-6.96934
-6.97223
-6.97461
-6.97658
-6.97822
-6.97957
-6.98068
-6.9816
-6.98236
-6.983
-6.98357
-6.98411
-6.98467
-6.98531
-6.98606
-6.98698
-6.98811
-6.98948
-6.99112
-6.99307
-6.99539
-6.99813
-7.00134
-7.00511
-7.00951
-7.01463
-7.02057
-7.02739
-7.03518
-7.044
-7.05389
-7.06489
-7.07704
-7.09036
-7.10484
-7.1205
-7.13731
-7.15526
-7.17432
-7.19444
-7.2156
-7.23772
-7.26075
-7.28461
-7.30923
-7.33451
-7.36035
-7.38665
-7.41328
-7.4401
-7.46698
-7.49378
-7.52031
-7.54641
-7.57188
-7.59648
-7.62001
-7.64223
-7.66288
-7.6817
-7.69844
-7.71283
-7.7246
-7.7335
-7.73929
-7.74172
-7.74055
-7.73556
-7.72653
-7.71329
-7.69566
-7.6735
-7.64669
-7.61513
-7.57872
-7.53738
-7.49102
-7.43957
-7.38295
-7.32109
-7.25389
-7.1813
-7.10323
-7.01962
-6.9304
-6.83551
-6.7349
-6.62853
-6.51636
-6.39837
-6.27453
-6.14483
-6.00927
-5.86786
-5.72059
-5.56751
-5.40863
-5.24399
-5.07365
-4.89767
-4.71611
-4.52904
-4.33656
-4.13876
-3.93574
-3.72762
-3.51453
-3.29659
-3.07393
-2.84672
-2.6151
-2.37924
-2.1393
-1.89546
-1.6479
-1.3968
-1.14237
-0.884789
-0.624259
-0.360984
-0.0951692
0.172977
0.443252
0.715443
0.989339
1.26473
1.5414
1.81915
2.09776
2.37702
2.65673
2.93667
3.21663
3.49642
3.77581
4.05463
4.33265
4.6097
4.88558
5.16009
5.43305
5.70429
5.97362
6.24088
6.5059
6.76852
7.02857
7.28591
7.54037
7.7918
8.04006
8.28501
8.5265
8.76439
8.99854
9.2288
9.45504
9.67709
9.89481
10.108
10.3166
10.5204
10.7193
10.913
11.1014
11.2844
11.4618
11.6333
11.799
11.9575
12.1106
12.2502
12.3968
12.4757
-6.93499
-6.93663
-6.94089
-6.94652
-6.95201
-6.95683
-6.96084
-6.96412
-6.96681
-6.96902
-6.97086
-6.97239
-6.97368
-6.9748
-6.97579
-6.97669
-6.97756
-6.97844
-6.97936
-6.98038
-6.98154
-6.98288
-6.98443
-6.98621
-6.98828
-6.99067
-6.99344
-6.99665
-7.00037
-7.00466
-7.00962
-7.01532
-7.02184
-7.02924
-7.0376
-7.04697
-7.0574
-7.06892
-7.08158
-7.09538
-7.11034
-7.12647
-7.14374
-7.16216
-7.1817
-7.20233
-7.224
-7.24667
-7.27027
-7.29473
-7.31997
-7.3459
-7.3724
-7.39937
-7.42668
-7.4542
-7.48176
-7.50921
-7.53637
-7.56303
-7.58898
-7.614
-7.63788
-7.66036
-7.68121
-7.70016
-7.71694
-7.73128
-7.74294
-7.75165
-7.75718
-7.75928
-7.75774
-7.75233
-7.74285
-7.72912
-7.711
-7.68834
-7.66105
-7.62902
-7.59217
-7.55042
-7.50369
-7.4519
-7.39497
-7.33282
-7.26537
-7.19254
-7.11425
-7.03043
-6.94101
-6.84592
-6.74513
-6.63858
-6.52625
-6.4081
-6.28412
-6.1543
-6.01862
-5.87709
-5.72972
-5.57654
-5.41757
-5.25286
-5.08245
-4.90641
-4.72479
-4.53768
-4.34516
-4.14733
-3.94429
-3.73616
-3.52306
-3.30513
-3.0825
-2.85531
-2.62373
-2.38791
-2.14803
-1.90425
-1.65677
-1.40577
-1.15143
-0.893964
-0.633555
-0.37041
-0.104737
0.163259
0.433372
0.705393
0.97911
1.25431
1.5308
1.80835
2.08675
2.36581
2.6453
2.92503
3.20479
3.48436
3.76354
4.04213
4.31994
4.59677
4.87244
5.14674
5.41951
5.69054
5.95968
6.22674
6.49157
6.754
7.01386
7.271
7.52527
7.77652
8.0246
8.26937
8.51069
8.74841
8.98241
9.21253
9.43863
9.66056
9.87816
10.0913
10.2997
10.5034
10.7021
10.8956
11.0838
11.2665
11.4436
11.6146
11.7795
11.937
12.0889
12.2266
12.3716
12.4466
-6.92228
-6.92416
-6.92927
-6.93593
-6.94236
-6.9479
-6.95246
-6.95615
-6.95914
-6.9616
-6.96366
-6.9654
-6.96692
-6.96828
-6.96954
-6.97075
-6.97196
-6.97321
-6.97453
-6.97597
-6.97755
-6.97932
-6.9813
-6.98352
-6.98602
-6.98884
-6.99205
-6.99571
-6.99988
-7.00465
-7.01007
-7.01623
-7.02319
-7.03103
-7.0398
-7.04957
-7.06039
-7.07229
-7.08532
-7.0995
-7.11483
-7.13131
-7.14895
-7.16773
-7.18765
-7.20866
-7.23075
-7.25385
-7.27792
-7.30288
-7.32864
-7.35512
-7.38218
-7.40972
-7.4376
-7.4657
-7.49385
-7.52186
-7.54953
-7.57667
-7.60304
-7.62843
-7.65258
-7.67524
-7.69615
-7.71507
-7.73172
-7.74586
-7.75723
-7.7656
-7.77073
-7.77238
-7.77036
-7.76445
-7.75446
-7.74023
-7.72161
-7.69849
-7.67075
-7.63832
-7.60111
-7.55904
-7.51202
-7.45996
-7.40279
-7.34042
-7.27275
-7.1997
-7.12119
-7.03715
-6.94752
-6.85223
-6.75123
-6.64449
-6.53198
-6.41367
-6.28954
-6.15957
-6.02376
-5.8821
-5.73461
-5.58132
-5.42224
-5.25744
-5.08694
-4.91083
-4.72914
-4.54198
-4.34941
-4.15155
-3.94848
-3.74034
-3.52724
-3.30932
-3.08671
-2.85956
-2.62803
-2.39227
-2.15245
-1.90876
-1.66137
-1.41048
-1.15627
-0.898943
-0.638686
-0.375707
-0.110215
0.157586
0.427489
0.699286
0.972768
1.24772
1.52395
1.80123
2.07937
2.35814
2.63734
2.91677
3.19623
3.4755
3.75439
4.03268
4.31019
4.58673
4.86212
5.13616
5.40867
5.67945
5.94834
6.21517
6.47976
6.74197
7.00162
7.25854
7.51259
7.76362
8.01148
8.25604
8.49716
8.73468
8.96848
9.19842
9.42434
9.64609
9.86351
10.0764
10.2847
10.4882
10.6866
10.8799
11.0678
11.2501
11.4267
11.5971
11.7612
11.9177
12.0684
12.2042
12.3475
12.4196
-6.91048
-6.91263
-6.91859
-6.92624
-6.93355
-6.93979
-6.94485
-6.94891
-6.95219
-6.95489
-6.95717
-6.95915
-6.96091
-6.96254
-6.9641
-6.96565
-6.96722
-6.96886
-6.97058
-6.97242
-6.97442
-6.97659
-6.97896
-6.98157
-6.98446
-6.98767
-6.99126
-6.99529
-6.99982
-7.00493
-7.01069
-7.01717
-7.02443
-7.03253
-7.04156
-7.05156
-7.06259
-7.07469
-7.08791
-7.10227
-7.11779
-7.13447
-7.15232
-7.17132
-7.19147
-7.21274
-7.23508
-7.25847
-7.28285
-7.30816
-7.33429
-7.36115
-7.38863
-7.4166
-7.44492
-7.47342
-7.50192
-7.53023
-7.55815
-7.58547
-7.61195
-7.63734
-7.66141
-7.68388
-7.70451
-7.72305
-7.73925
-7.75286
-7.76366
-7.77143
-7.77594
-7.77699
-7.77437
-7.7679
-7.7574
-7.74271
-7.72368
-7.70023
-7.67227
-7.63968
-7.60235
-7.56018
-7.51308
-7.46096
-7.4037
-7.34121
-7.27342
-7.20026
-7.12163
-7.03747
-6.94769
-6.85225
-6.75111
-6.64424
-6.53159
-6.41314
-6.28887
-6.15877
-6.02281
-5.88103
-5.73341
-5.58
-5.42081
-5.2559
-5.08531
-4.90911
-4.72736
-4.54014
-4.34753
-4.14963
-3.94655
-3.73839
-3.5253
-3.30739
-3.08481
-2.8577
-2.62622
-2.39053
-2.1508
-1.9072
-1.65992
-1.40915
-1.15508
-0.897895
-0.637811
-0.375027
-0.109751
0.157812
0.427457
0.698976
0.972161
1.2468
1.52269
1.79961
2.07736
2.35572
2.6345
2.91349
3.1925
3.47132
3.74974
4.02758
4.30465
4.58074
4.85569
5.12929
5.40136
5.67172
5.94021
6.20665
6.47088
6.73272
6.99203
7.24862
7.50235
7.75308
8.00065
8.24493
8.48577
8.72303
8.95657
9.18627
9.41195
9.63346
9.85065
10.0633
10.2714
10.4746
10.6727
10.8657
11.0532
11.2351
11.4111
11.5808
11.7441
11.8995
12.0488
12.1828
12.3245
12.3943
-6.90051
-6.90292
-6.9097
-6.9183
-6.92641
-6.93323
-6.93868
-6.94301
-6.94651
-6.94943
-6.95192
-6.95412
-6.95613
-6.95804
-6.95992
-6.96181
-6.96375
-6.96575
-6.96786
-6.97008
-6.97244
-6.97496
-6.97767
-6.9806
-6.98379
-6.98728
-6.99112
-6.99538
-7.00012
-7.00541
-7.01131
-7.0179
-7.02525
-7.03341
-7.04246
-7.05246
-7.06346
-7.07553
-7.08869
-7.10298
-7.11844
-7.13508
-7.15291
-7.17194
-7.19214
-7.21351
-7.23599
-7.25952
-7.28404
-7.30946
-7.33569
-7.36264
-7.39019
-7.41822
-7.44657
-7.47507
-7.50353
-7.53174
-7.55949
-7.58657
-7.61271
-7.63768
-7.66121
-7.68305
-7.70297
-7.72074
-7.73609
-7.74882
-7.75868
-7.7655
-7.76909
-7.76925
-7.76582
-7.75867
-7.74767
-7.73266
-7.71351
-7.69009
-7.66226
-7.62988
-7.5928
-7.5509
-7.50406
-7.45213
-7.39502
-7.33263
-7.2649
-7.19177
-7.11315
-7.02898
-6.93919
-6.84374
-6.74256
-6.63564
-6.52293
-6.40442
-6.28007
-6.14987
-6.01384
-5.87196
-5.72427
-5.57077
-5.41152
-5.24655
-5.07591
-4.89967
-4.71789
-4.53066
-4.33805
-4.14017
-3.93711
-3.729
-3.51596
-3.29811
-3.0756
-2.84858
-2.61721
-2.38163
-2.14204
-1.89859
-1.65147
-1.40086
-1.14697
-0.889993
-0.630133
-0.367593
-0.102579
0.164704
0.434047
0.705241
0.978075
1.25234
1.52782
1.80431
2.0816
2.35949
2.63777
2.91624
3.1947
3.47295
3.75081
4.02807
4.30455
4.58003
4.85435
5.12733
5.39877
5.66852
5.93639
6.20223
6.46585
6.72709
6.9858
7.24183
7.49504
7.74525
7.99233
8.23612
8.4765
8.71331
8.94643
9.17572
9.40102
9.62217
9.83901
10.0514
10.2591
10.462
10.6598
10.8524
11.0395
11.2209
11.3963
11.5652
11.7276
11.8818
12.0298
12.1619
12.302
12.3703
-6.89271
-6.8954
-6.90303
-6.91253
-6.92134
-6.92861
-6.93432
-6.9388
-6.94245
-6.94552
-6.9482
-6.95062
-6.95288
-6.95509
-6.9573
-6.95954
-6.96183
-6.9642
-6.96665
-6.9692
-6.97186
-6.97466
-6.9776
-6.98073
-6.98409
-6.98769
-6.9916
-6.99588
-7.00058
-7.00577
-7.01153
-7.01792
-7.02503
-7.03292
-7.04167
-7.05134
-7.062
-7.0737
-7.08649
-7.1004
-7.11547
-7.13175
-7.14924
-7.16794
-7.18784
-7.20891
-7.23111
-7.25436
-7.2786
-7.30373
-7.32966
-7.3563
-7.38352
-7.41119
-7.43915
-7.46724
-7.49525
-7.52299
-7.55023
-7.57674
-7.60225
-7.62649
-7.64919
-7.67012
-7.68907
-7.70586
-7.72027
-7.73205
-7.74099
-7.74689
-7.74959
-7.74894
-7.74477
-7.73698
-7.72552
-7.71029
-7.69116
-7.66796
-7.64048
-7.60851
-7.57188
-7.53041
-7.48394
-7.43231
-7.37544
-7.31325
-7.24567
-7.17265
-7.09412
-7.01003
-6.92031
-6.82491
-6.7238
-6.61692
-6.50426
-6.38577
-6.26145
-6.13129
-5.9953
-5.85347
-5.70583
-5.5524
-5.39322
-5.22834
-5.0578
-4.88168
-4.70004
-4.51295
-4.3205
-4.12279