/*--------------------------------*- C++ -*----------------------------------*\
| =========                 |                                                 |
| \\      /  F ield         | OpenFOAM: The Open Source CFD Toolbox           |
|  \\    /   O peration     | Version:  2312                                  |
|   \\  /    A nd           | Website:  www.openfoam.com                      |
|    \\/     M anipulation  |                                                 |
\*---------------------------------------------------------------------------*/
FoamFile
{
    version     2.0;
    format      ascii;
    arch        "LSB;label=32;scalar=64";
    class       volScalarField;
    location    "0.2";
    object      Pw;
}
// * * * * * * * * * * * * * * * * * * * * * * * * * * * * * * * * * * * * * //

dimensions      [0 0 -2 0 0 0 0];

internalField   nonuniform List<scalar> 
12225
(
5.29438e+08
5.55259e+08
3.77218e+08
2.50128e+08
1.86899e+08
1.55014e+08
1.36785e+08
1.2617e+08
1.19874e+08
1.15699e+08
1.12471e+08
1.10051e+08
1.08075e+08
1.06771e+08
1.05873e+08
1.05031e+08
1.05886e+08
1.0112e+08
392518
209173
1.34481e+07
3.7086e+07
5.56193e+07
6.11119e+07
6.06912e+07
5.77047e+07
5.3985e+07
5.04345e+07
4.73833e+07
4.48476e+07
4.27941e+07
4.11185e+07
3.96483e+07
3.86725e+07
3.6873e+07
3.72416e+07
79367.8
53324.1
86628.6
1.11621e+06
3.4583e+06
6.28629e+06
8.88455e+06
1.09297e+07
1.25409e+07
1.38745e+07
1.47837e+07
1.50229e+07
1.50734e+07
1.49402e+07
1.47493e+07
1.44468e+07
1.40705e+07
1.35697e+07
26358.5
33391.9
46255.5
37088.7
37770.3
149081
396487
733813
1.13296e+06
1.56875e+06
2.01443e+06
2.42708e+06
2.78864e+06
3.07724e+06
3.311e+06
3.48197e+06
3.6002e+06
3.71509e+06
29028
45988.7
50711.3
32919.4
13651.9
4442.44
315.624
1378.4
9999.41
29943.8
62735.1
108564
161380
219509
274800
334341
380901
449375
50448.8
48701.9
39901.2
26984.6
15625.6
9962.73
6185.57
3115.36
1503.35
792.132
368.092
97.6037
205.735
885.337
1870.2
3526.66
4856.69
7986.33
30572.3
30533.3
20987.8
24248.1
18624.4
10681.7
5537.06
2506.22
1407.89
1207.32
1236.94
1314.5
1444.28
1485.13
1479.13
1360.44
1268.5
939.46
4265.43
1221.32
9585.64
24073.8
24083.6
13903.8
6827.54
3220.66
1811.08
1366.17
1271.1
1375.68
1603.73
1832.05
2023.7
2165.17
2236.04
2106.44
2178.53
3430.94
15099.8
26954.6
27314.9
18513.4
10058.4
5449.39
3225.62
2177.28
1734.46
1660.38
1783.72
1965.05
2148.94
2311.69
2397.63
2316.2
1738.99
1500.27
11361
20167.1
21990.8
19057.7
13120.8
8300.61
5313.89
3525.99
2589.77
2233.65
2197.45
2291.13
2423.15
2539.88
2576.87
2463.04
3281.77
7238.33
7591.54
9822.69
12435.8
13846.7
12490.2
9459.03
6691.39
4634.04
3386.08
2815.21
2663.27
2700.27
2787.13
2838.88
2791.06
2602.49
65345.9
14458.1
5556.95
4198.62
6704.45
8665.36
9127.18
8066.67
6320
4691.28
3584.65
3054.03
2929.82
2992.16
3072.6
3070.91
2930.8
2654.74
13031.5
9993.89
2899.27
1181.73
3012.12
4805.12
5598.49
5374.17
4545.19
3632.87
2980.61
2720.62
2773.88
2955.25
3086.22
3066.94
2856.35
2511.28
12137.5
4739.58
1138.68
780.068
1692.45
2569.35
3103.54
3098.27
2702.14
2204.61
1856.78
1799.27
2004.02
2311.95
2533.77
2559.49
2350.51
2006.42
29088.1
7998.2
6675.59
4096.18
1555.75
528.057
511.208
779.429
928.858
844.042
667.963
627.15
823.348
1166.74
1465.83
1579.42
1456.76
1198.99
3891.2
189.127
1757.87
856.465
166.56
192.082
274.084
263.339
198.945
153.519
148.222
251.842
524.319
892.13
1178.82
1256.3
1104.45
839.291
13248.7
2730.64
8346.86
11790.6
9881.58
6257.97
3545.78
1754.75
780.033
460.999
540.363
861.488
1313.19
1740.73
1984.75
1973.14
1738.73
1403.25
24773.4
572.315
2597.09
5852.02
6467.6
4242.56
2278.29
1276.06
759.843
570.988
650.847
884.622
1193.95
1524.18
1798.16
1939.21
1927.91
1832.83
1720.21
717.865
153.018
256.929
333.479
1948.3
2843.06
2190.21
1353.9
950.259
790.046
663.615
511.832
363.772
270.422
242.441
255.606
324.002
4799.8
291.402
201.684
352.349
2069.59
3498.11
4165.94
4270.73
3867.27
3258.91
2691.15
2157.88
1601.03
1059.5
628.005
358.928
227.191
173.053
5684.27
470.125
475.371
51.6717
247.702
806.708
1921.32
3397.55
4392.16
4551.67
4131.11
3447.59
2690.27
1966.02
1337.8
862.818
548.987
408.087
12752.4
2687.62
1184.09
1074.66
698.432
775.628
1962.31
3621.03
4853.7
5336.56
5176.26
4615.09
3837.99
2990.93
2178.47
1495.68
972.375
652.629
14251.2
3978.28
2997.29
4253.92
3094.13
2776.37
4441.64
6364.27
7413.34
7532.17
6959.17
5939.3
4711.19
3528.16
2535.26
1781.43
1227.7
867.534
13038.8
3354.26
6614.05
8702.12
7009.19
5600.9
7498.62
10602.6
11753.5
10631.7
8763.25
6854.2
5088.1
3642.84
2587.94
1881.28
1412.54
1108.33
18289.7
3504.54
4957.62
11269.6
18702.4
20214.8
18746.5
17636.4
16327
14286
11750.2
8925.66
6257.73
4144.72
2711.22
1867.28
1390.82
1115.54
10928.7
5130.16
673.106
5494.29
20929.5
32549
32002.6
23358.8
15239
10486.7
6785.95
3635.48
1303.78
227.747
468.51
1846.37
4284.47
7437.33
9013.62
7233.97
4926.69
8627.5
26296.5
33531.5
21185
5063.94
13609
50900.7
107063
172214
242315
315905
395520
480506
574205
669815
3224.74
2716.07
14045.4
15322.2
102795
346106
882686
1.70069e+06
2.65672e+06
3.53688e+06
4.24394e+06
4.78638e+06
5.20816e+06
5.56188e+06
5.90479e+06
6.24557e+06
6.62254e+06
6.96634e+06
8744.07
91463.6
887903
2.04431e+06
8.96616e+06
1.78757e+07
2.80562e+07
3.28404e+07
3.48074e+07
3.46623e+07
3.3494e+07
3.2096e+07
3.07404e+07
2.95358e+07
2.84809e+07
2.7555e+07
2.67032e+07
2.59334e+07
3.09938e+08
3.08636e+08
2.81861e+08
2.68399e+08
2.01684e+08
1.50238e+08
1.19377e+08
1.00125e+08
8.70808e+07
7.85875e+07
7.31921e+07
6.9563e+07
6.6955e+07
6.49038e+07
6.31236e+07
6.1555e+07
6.00868e+07
5.88714e+07
90.5862
24.0403
152.68
977.45
2483.31
4328.68
6272.2
8233.93
10192.1
12127
14020.3
15842.4
17556.6
19128.8
20532.3
21747.6
22764.7
23582.1
24205.7
24648.2
24931.7
25081.9
25122.7
25080.6
24986.9
24872.9
24765.4
24683.9
24638.9
24634
24667.2
24731
24812.6
24894.1
24955.8
24972.9
24916.3
24757.6
24469.4
24024.7
23394.4
22548
21446.7
20035.2
18257.5
16049.8
13421.3
10353.1
7022.22
3916.21
1570.81
534.606
1416.12
5041.69
12681.7
26291.6
48609.6
80359
115047
148319
184186
223677
265959
310305
356140
402978
450398
498030
545550
592686
639209
684931
729704
773403
815931
857224
897254
936009
973498
1.00974e+06
1.04478e+06
1.07866e+06
1.11143e+06
1.14313e+06
1.17383e+06
1.20355e+06
1.23234e+06
1.26021e+06
1.28718e+06
1.31323e+06
1.33835e+06
1.3625e+06
1.38563e+06
1.40767e+06
1.42858e+06
1.44826e+06
1.46664e+06
1.48366e+06
1.49923e+06
1.51329e+06
1.52578e+06
1.53667e+06
1.54592e+06
1.55354e+06
1.5595e+06
1.56385e+06
1.56661e+06
1.56782e+06
1.56755e+06
1.56581e+06
1.56266e+06
1.5581e+06
1.55213e+06
1.54477e+06
1.53606e+06
1.52592e+06
1.51429e+06
1.50108e+06
1.48619e+06
1.46952e+06
1.45093e+06
1.43029e+06
1.40748e+06
1.3824e+06
1.35495e+06
1.32508e+06
1.29276e+06
1.25804e+06
1.22097e+06
1.1817e+06
1.14041e+06
1.09733e+06
1.05273e+06
1.00692e+06
960238
913047
865698
818538
771890
726042
681244
637695
595546
554896
515798
478266
442276
407780
374712
342995
312551
283306
255199
228191
202265
177433
153737
131248
110067
90320.1
72152.3
55720.3
41186
28700.7
18401.9
10411.1
4818.87
1686.09
1048.27
2916.64
7282.6
14108.6
23310.2
34776
48442.1
63923.1
81817
97729
123725
122543
39.998
570.764
2302.6
3963.33
4698.86
4628.43
4101.64
3391.37
2664.04
2008.87
1462.93
1032.47
707.337
472.426
311.661
209.26
151.619
127.579
128.341
147.047
178.8
220.502
270.411
328
394.14
470.946
561.584
670.6
804.194
970.37
1178.79
1440.63
1768.86
2179.09
2691.03
3331.41
4136.98
5156.13
6452.48
8110.44
10244.9
13014.4
16631.1
21360.4
27503.2
35306.4
44993.2
56904.8
71369.7
88129.2
106016
123870
140857
155501
166150
171796
172517
169919
165654
160700
155424
150340
145646
141441
137716
134431
131544
129007
126772
124797
123043
121473
120051
118754
117570
116472
115438
114454
113507
112585
111675
110767
109853
108922
107966
106977
105947
104867
103731
102534
101269
99931
98516.7
97022.3
95445.6
93785
92040.1
90211.3
88299.6
86306.2
84232.9
82083.6
79864.7
77579.4
75230.9
72824.6
70367.2
67862.8
65317
62736.6
60129.7
57502.8
54862.8
52213.3
49552.2
46889.3
44230.9
41584.9
38960.1
36365.8
33811.9
31308.5
28865.6
26493.4
24201.2
21997.8
19891.3
17888.4
15995.8
14218.5
12560.1
11022.8
9607.67
8315.04
7144.46
6094.82
5164.54
4351.91
3655.14
3072.47
2602.31
2243.21
1993.84
1852.97
1819.43
1892.05
2069.62
2350.88
2734.48
3218.99
3802.86
4484.35
5261.5
6132.05
7093.46
8142.85
9276.92
10492
11783.9
13147.9
14579.5
16073.2
17622.1
19223.7
20872.6
22562.4
24292.5
26060.2
27866.7
29716.2
31610.7
33579.1
35670.3
37931
40346.2
43098.2
45666.5
50123.1
52206.6
62494.3
338.406
4267.29
6896.56
5745.21
3830.61
2452.55
1567.4
989.798
623.694
409.214
301.164
266.813
283.765
337.363
417.784
517.535
632.415
760.074
898.269
1045.48
1201.29
1366.44
1541.99
1729.33
1930.74
2149.25
2389.14
2656.92
2962.17
3318
3740.62
4249.59
4869.35
5631.4
6578.05
7765.15
9265.47
11170
13586.2
16639.2
20466.4
25207.4
30975.6
37810.2
45596.1
54028.2
62502.9
70190.3
76513.8
80435.9
81131
78645.1
73446.5
66473.7
59200.9
53025.8
48620.4
45388.7
42232.9
38751
35095.4
31509.7
28129.1
25022.2
22208.9
19682.3
17424.4
15413.6
13625.8
12037.3
10626.6
9374.12
8261.92
7273.5
6393.99
5612.13
4917.36
4300.24
3752.53
3266.75
2836.18
2454.72
2116.86
1817.59
1552.45
1317.49
1109.27
924.766
761.369
616.966
489.832
378.638
282.421
200.554
132.697
78.7417
38.7587
12.9297
1.49235
4.70606
22.7649
55.6689
103.441
165.965
242.944
334.143
439.135
557.358
688.364
831.823
987.617
1155.82
1336.51
1529.38
1734.26
1951.27
2180.87
2423.58
2680.11
2951.17
3237.46
3539.65
3858.25
4193.56
4545.51
4913.59
5296.89
5693.8
6102.61
6520.8
6945.51
7373.18
7799.89
8222.22
8636.51
9039.33
9428.05
9800.77
10156.4
10494.7
10816.3
11122.7
11416
11698.7
11973.5
12243.2
12510.7
12778.2
13048
13321.8
13601.2
13887.7
14182.2
14485.1
14796.6
15116.6
15444.6
15779.7
16120.7
16465.6
16812.6
17159.4
17503.4
17841.7
18173.3
18496.3
18811.1
19119.1
19424.1
19732.9
20054
20404.1
20797.5
21242
21734
22365.8
22953
24340
25142.7
29160.4
3907.35
11098.5
8009.32
3213.14
1315.36
648.329
356.295
215.938
154.073
138.13
152.427
189.244
244.56
316.217
402.826
503.096
616.752
744.254
885.641
1041.37
1212.2
1399.3
1605.14
1832.96
2086.39
2370.53
2692.63
3063
3496.26
4012.03
4635.83
5398.84
6336.8
7493.62
8924.12
10691.4
12866.5
15516
18680.7
22361.6
26488.9
30863
35175.9
39071.8
42150.5
43950.1
44063.5
42517.3
39724.9
36136.3
32170
28130.6
24241.6
20648.3
17470.7
14833.4
12815.2
11359
10243.5
9254.85
8318.84
7426.64
6586
5808.08
5100.91
4468.28
3909.69
3423.19
3005.83
2653.28
2361.53
2126.68
1944.85
1812.18
1724.86
1679.1
1671.05
1696.71
1752.03
1832.95
1935.44
2055.58
2189.71
2334.47
2486.89
2644.51
2805.35
2967.95
3131.3
3294.89
3458.68
3623.05
3788.72
3956.66
4128.02
4304.05
4486.01
4675.11
4872.27
5077.66
5291.8
5515.07
5747.63
5989.24
6238.8
6494.44
6754.11
7015.91
7278.02
7538.69
7796.32
8049.6
8297.67
8539.89
8775.94
9006.12
9231.37
9453.07
9672.97
9893.02
10115.3
10341.9
10575
10816.4
11067.7
11329.8
11603
11886.8
12179.9
12480.3
12785.1
13090.8
13392.7
13686.9
13968.6
14233.1
14476.4
14695.5
14888.3
15053.4
15191
15302.4
15389.6
15455.6
15504
15538.4
15563
15581.3
15596.8
15612.4
15631
15655.5
15687.7
15729.1
15780.5
15842.4
15914.5
15996.3
16086.4
16182.9
16282.8
16383.1
16482.2
16574.4
16656.6
16729.3
16789.9
16839.9
16882.6
16923.5
16970.1
17031
17111.8
17221.5
17365.2
17608.5
17863.4
18594.2
19265.9
21222.4
15116
14822.2
3981.33
757.068
280.855
133.004
65.2674
38.0586
36.9826
56.1081
92.5735
144.789
211.903
293.579
389.746
500.608
627.205
770.846
933.054
1115.88
1321.78
1553.78
1815.75
2112.88
2452.02
2841.84
3293.6
3822.34
4448.13
5196.43
6097.36
7185.15
8495.69
10060
11896.4
14004.3
16352.9
18868.6
21412.7
23793.5
25801.3
27224.4
27831.4
27448.4
26141.3
24153
21730.2
19120.7
16542.4
14160.2
12038
10181.1
8587.07
7238.08
6120.09
5226.74
4551.25
4072.05
3744.77
3515.54
3346.51
3215.66
3110.96
3026.56
2960.59
2913.65
2886.73
2881.32
2899.22
2941.96
3010.84
3106.75
3230.05
3380.46
3557.11
3758.47
3982.35
4225.97
4486.02
4758.84
5040.52
5327.12
5614.89
5900.46
6180.94
6454.1
6718.32
6972.67
7216.86
7451.22
7676.68
7894.69
8107.12
8316.1
8523.89
8732.82
8945.07
9162.58
9386.8
9618.69
9860.13
10111.9
10372.1
10639.6
10913.1
11190.1
11467.7
11742.6
12011.6
12271.8
12520.3
12755.1
12974.8
13178.7
13366.9
13540.2
13700.1
13849.1
13990
14126.2
14260.9
14397.7
14539.9
14691.1
14854
15030.7
15222.4
15429.2
15650.1
15883.3
16125.6
16372.9
16619.8
16861.4
17091.2
17302.9
17491.1
17651.3
17779.7
17874.1
17933.7
17959.2
17952.7
17917.6
17857.7
17777.8
17683
17578.3
17468.1
17356.5
17247.7
17145.9
17054.1
16974.4
16908.4
16857.1
16820.3
16797.6
16787.7
16788.2
16795.3
16804.9
16813.8
16816.7
16808.7
16787.8
16751.6
16700.2
16636.7
16566
16495.2
16431.5
16382
16357.7
16368.1
16464.7
16604
17080.8
17664.9
18776.1
33380.2
12108.1
839.895
157.382
101.438
41.5347
9.01159
0.757033
12.1844
40.7976
85.3236
145.281
220.894
312.726
421.63
549
696.637
866.774
1062.11
1285.8
1542.15
1836.39
2174.53
2563.96
3013.54
3534.07
4138.71
4842.72
5662.67
6615.52
7715.8
8969.72
10368.8
11882.9
13454.2
14990.7
16379.5
17504.7
18259.2
18528.5
18229.2
17379.4
16097.1
14528.1
12826
11136.2
9572.86
8197.95
7029.31
6062.55
5273.74
4634.13
4116.44
3696.85
3358.56
3093.51
2900.39
2778.67
2722.4
2719.59
2757.27
2824.87
2914.43
3020.41
3139.97
3272.41
3418.34
3579.36
3757.6
3955.41
4175
4418.13
4685.87
4978.47
5295.3
5634.8
5994.51
6371.11
6760.6
7158.41
7559.64
7959.33
8352.81
8736
9105.56
9459.01
9794.73
10112
10411.1
10692.8
10959.2
11212.4
11455.6
11692
11924.9
12157.9
12393.9
12635.6
12885.5
13146.1
13418.1
13701.4
13995.4
14298.4
14607.9
14920.7
15232.6
15538.8
15834.5
16115.2
16377.1
16617
16832.9
17023.8
17189.5
17331.2
17451.3
17553
17640.7
17718.8
17792.2
17865.7
17944.2
18032.6
18135.6
18256.3
18396.8
18558.1
18739.2
18938.7
19153.4
19378.2
19607.3
19834.2
20050.7
20248.7
20421.2
20561.9
20665.4
20727.8
20747.3
20724.2
20660.3
20559
20424.8
20263.3
20080.9
19884.1
19678.6
19469.4
19262.2
19063.1
18876.5
18705.2
18552.1
18418.6
18305
18211
18135.3
18075.3
18026.1
17982.8
17940.3
17892.4
17832.8
17757.1
17661.6
17545.5
17411
17263
17108.7
16956.7
16816.1
16700.7
16623.8
16627.8
16692.8
17023.3
17505.4
18192
52348.6
7335.44
30.5047
223.478
165.868
101.865
69.3695
61.8925
74.5067
104.922
152.424
217.272
300.263
402.696
526.347
673.302
846.175
1048.23
1283.26
1555.6
1870.21
2232.71
2649.47
3127.31
3673.31
4294.43
4996.51
5782.64
6650.33
7588.28
8573.76
9570.59
10528.1
11383.8
12072.4
12534.3
12707.7
12547.7
12051.9
11273.7
10290
9192.6
8077.67
7030.15
6102.17
5316.84
4677.47
4173.6
3788.54
3503.07
3297.13
3151.88
3050.58
2979.68
2930.19
2898.55
2886.66
2899.68
2941.38
3012.26
3110.4
3232.86
3376.61
3539.31
3719.84
3918.18
4135.39
4373.32
4634.3
4920.77
5234.99
5578.72
5952.87
6357.29
6790.68
7250.59
7733.41
8234.55
8748.6
9269.45
9790.51
10305.2
10807.3
11291.8
11754.5
12192.6
12604.2
12988.8
13347.1
13680.8
13992.4
14285.6
14564.6
14833.8
15098.1
15362.2
15630.2
15905.7
16192.5
16493.1
16808.6
17139.1
17483.8
17840.6
18206.1
18576.1
18944.9
19305.8
19652
19977.1
20275.8
20543.8
20777.9
20976.2
21138.3
21265.3
21360.3
21427.7
21473
21502.8
21523.3
21540.8
21562
21593.8
21642.9
21714.2
21811
21934.7
22085.3
22261.2
22459.7
22675
22900.4
23127.7
23346.8
23547.3
23720.4
23857.8
23952.3
23998.1
23991.8
23933.3
23824
23667.2
23467.9
23232.4
22968.5
22684.6
22387.5
22083.1
21778.9
21483.6
21203.2
20941.8
20703.4
20490.8
20304.5
20144.7
20010.6
19898.9
19803.9
19719.3
19638.3
19553.1
19455.5
19338.6
19196.7
19027.4
18831.8
18614.7
18384.3
18150.6
17925.7
17725.8
17567.6
17488.3
17481.3
17696.1
18064.6
18499.2
65826.5
3703.31
268.908
488.149
368.658
285.684
242.676
228.317
236.933
266.049
315.002
384.212
475
589.149
728.727
896.464
1095.59
1329.55
1601.93
1916.47
2277.06
2687.21
3149.53
3664.38
4230
4840.53
5484.77
6145.3
6798.83
7416.8
7965.36
8409.01
8714.44
8849.42
8787.46
8518.44
8063.6
7462.73
6768.63
6039.8
5337.1
4705.93
4171.31
3741.41
3414.18
3180.98
3028.87
2942.89
2908.74
2913.28
2945.01
2994.29
3052.9
3114.52
3175.52
3235.59
3297.86
3367.78
3450.88
3551.35
3671.82
3813.55
3977.16
4163.31
4373.03
4607.9
4870.11
5162.34
5487.47
5848.34
6247.41
6686.36
7165.79
7684.87
8241.24
8831.02
9448.93
10088.6
10742.6
11403
12060.9
12707.4
13334.4
13935.4
14505.6
15041.4
15541
16004
16431.4
16825.6
17190.4
17530.7
17852
18160.5
18462.6
18763.9
19070.4
19388
19720.4
20070.6
20440.8
20831.4
21241.1
21667.2
22105.8
22551.4
22997.1
23433.9
23852
24242.8
24599.2
24915.4
25186.5
25409.5
25582.9
25707.8
25787.4
25827
25834.2
25817.4
25784.9
25744.5
25704.6
25674.8
25664.7
25681.7
25730.5
25813.1
25930.4
26081.4
26263.4
26470.5
26694.9
26926.8
27153.3
27361.4
27540
27679.3
27770
27803.7
27775.6
27684.7
27532.6
27322.3
27058.9
26749.2
26401.9
26027.4
25634.3
25228.4
24819.3
24418.9
24035.8
23675.1
23342.6
23043
22777.4
22546.7
22351
22186.6
22046.7
21923.4
21808.2
21691.1
21561.6
21409.7
21227
21008.8
20754.9
20469.8
20162.6
19845.4
19532.3
19242.5
18996.4
18828.3
18739.7
18845.2
19091.8
19351.9
71102.4
1744.31
840.539
873.155
697.858
590.735
532.599
508.416
511.35
538.515
588.856
662.752
761.431
886.633
1040.78
1226.39
1445.62
1700.42
1992.44
2322.48
2689.92
3091.72
3521.68
3970.22
4424.36
4868.22
5283.75
5651.01
5949.33
6158.88
6262.64
6245.2
6098.68
5830.24
5460.57
5019.9
4544.25
4074.09
3644.04
3278.46
2990.02
2782.42
2651.71
2589.25
2584.38
2625.57
2701.67
2802.53
2919.46
3045.15
3173.71
3300.46
3421.79
3535.34
3640.47
3738.67
3833.59
3930.39
4034.77
4152
4286.61
4442.32
4622.24
4829.35
5066.68
5337.49
5645.39
5994.19
6387.75
6829.62
7322.7
7868.87
8468.5
9120.02
9819.7
10561.7
11338.6
12141.3
12960.6
13786.1
14606.2
15408.6
16182.8
16921.1
17617.7
18268.6
18871.9
19426.9
19935.3
20400.3
20826.8
21221.2
21590.6
21943.2
22287.3
22630.1
22979.9
23343.7
23726.7
24133.2
24566.1
25026.1
25511.6
26019.3
26544.2
27080.1
27619.2
28150
28658.6
29133.5
29566
29948.5
30274.5
30538.9
30738.9
30874.3
30948.3
30966.9
30939.1
30876
30788.5
30685.3
30576.4
30475.1
30394.6
30346.1
30336
30367.6
30441.8
30559.1
30717.3
30910.2
31129.3
31362.8
31594.5
31807.9
31989
32127.1
32210.9
32229.2
32175.1
32047.8
31848.8
31581.1
31249.5
30860.6
30424
29952.2
29455
28938.1
28412
27893.3
27393.5
26918.7
26477.1
26076.4
25718.2
25404.6
25137.3
24912.9
24722.8
24557.6
24406.9
24258.5
24098.8
23914.2
23692.7
23426.9
23114.5
22759.6
22372
21965.5
21556.4
21166.7
20821
20552.4
20368
20360.3
20479.1
20597.3
68268
1063.68
1530.68
1368.69
1142.45
1010.33
936.333
901.711
898.991
924.525
976.023
1053.45
1157.87
1290.56
1452.58
1644.5
1866.5
2117.08
2389.46
2681.48
2989.39
3301.93
3607.76
3893.81
4146.47
4352.22
4498.26
4573.87
4569.72
4480.5
4307.79
4063.04
3764.44
3435.74
3104.59
2798.12
2537.93
2337.75
2204.62
2139.24
2136.88
2189.23
2286.27
2417.8
2574.29
2747.17
2929.05
3113.75
3296.36
3473.12
3641.27
3798.96
3945.17
4079.85
4204.25
4320.86
4433.68
4547.77
4668.79
4802.57
4954.79
5130.75
5335.34
5573.38
5849.72
6169.31
6537.22
6958.55
7438.12
7980.24
8588.78
9266.33
10013.2
10827
11702
12629.7
13599
14597.8
15614.4
16636.8
17650.1
18637.9
19586
20485.2
21329.8
22115.6
22840.1
23502.7
24105.3
24652
25149.3
25604.6
26027
26426.8
26814.4
27200.8
27595.3
28006.1
28441.1
28906.4
29405.8
29940.3
30508
31104.2
31722.8
32356.8
32998.5
33634.3
34245.1
34815.4
35335.8
35797.8
36192.8
36513.4
36754.5
36914.4
36995.2
37002.6
36946.1
36839.6
36696.8
36527.4
36342
36157.5
35992.9
35864.3
35781.1
35747
35763.7
35833.4
35954.7
36121.6
36324.8
36551
36780.2
36990.1
37163.3
37288.1
37352.7
37343.3
37250.4
37074
36816.7
36481.6
36073
35597.3
35063.4
34486.3
33876.3
33238.5
32583.2
31932
31300.5
30694.9
30126.1
29606.3
29138.3
28725.1
28371.7
28075.2
27825.4
27611.3
27420.4
27238
27047.2
26830
26570.1
26256.6
25884.8
25457.7
24985.8
24483.9
23970.1
23469.1
23009.9
22625.7
22328.4
22196
22178.4
22164
58954.6
1221.03
2292.55
1946.37
1677.21
1523.97
1435.27
1390.99
1383.4
1406.69
1457.38
1535.31
1639.96
1770.24
1925.25
2103.13
2300.82
2512.94
2728.21
2926.66
3084.66
3256.21
3397.26
3497.89
3548.92
3543.47
3477.03
3348.99
3165.16
2936.85
2680.43
2415.93
2165.58
1949.45
1783.1
1676.84
1635.34
1657.82
1739.04
1870.74
2043.11
2245.92
2469.55
2705.53
2946.74
3187.3
3422.47
3648.64
3863.14
4064.28
4251.16
4423.66
4582.51
4729.43
4866.96
4998.36
5128.08
5261.57
5404.94
5564.65
5747.02
5958.4
6205.81
6495.9
6834.98
7229.41
7685.59
8209.7
8807.66
9484.91
10245.9
11093.9
12029.4
13048.9
14143.8
15301.5
16505.8
17739.3
18987.8
20240.2
21479
22680.6
23825.9
24906.2
25917.4
26855.8
27718.1
28503.3
29213.1
29852.4
30430.5
30954.9
31435.1
31885
32318.2
32747.8
33185.4
33641.6
34126.5
34648
35212
35820
36469.8
37154.9
37866.5
38595.5
39335.9
40071.7
40780
41440.3
42044.7
42585.2
43051.6
43434.1
43725.2
43921.1
44022.3
44032.9
43961
43820.8
43627.9
43393.1
43127.5
42851.3
42590.1
42366.7
42194.8
42078.5
42020.1
42025
42093
42217.6
42389
42593.2
42806.3
42998.8
43147.4
43238.7
43259.3
43195.8
43038.9
42789.3
42452.2
42031.2
41530.9
40957.3
40317.9
39628.5
38896.2
38128
37333.4
36538.6
35761.8
35009.9
34296.1
33638.5
33041.7
32509.7
32052.3
31668.7
31346.8
31073.6
30835.3
30614.1
30389.4
30138.3
29839.1
29477.1
29044.6
28543.6
27984.3
27382.5
26757.2
26134.9
25549.1
25034.2
24606.4
24334.8
24169.1
24020.4
45506.3
1917.53
3063.29
2568.22
2268.73
2098.29
1996.22
1941.76
1927.33
1946.81
1994.67
2067.01
2160.57
2272.84
2400.66
2539.4
2683.01
2823.39
2947.98
3038.78
3079.32
3063.54
3003.51
2944.8
2838.1
2684.27
2489.18
2263.47
2021.75
1781.93
1562.73
1381.4
1252.06
1184.68
1184.31
1250.91
1380.03
1563.87
1792.53
2055.3
2341.67
2641.96
2947.73
3251.97
3549.16
3835.12
4106.93
4362.63
4600.87
4821.36
5024.86
5212.88
5387.63
5551.73
5708.59
5863.67
6022.7
6191.8
6377.9
6588.44
6831.26
7114.34
7445.34
7831.79
8281.19
8800.78
9397.55
10078.1
10848.4
11714
12679.9
13750.4
14927.3
16205.4
17572.1
19009.5
20493.3
21996.3
23501.2
25003.6
26486.4
27916.7
29267.5
30534
31718.3
32818
33828.6
34747.5
35575.6
36318.7
36989.1
37593
38139.5
38647.1
39131.8
39608
40089.9
40590.2
41121
41693
42314.1
42988.1
43712.8
44480.2
45278.4
46093.7
46917.4
47717.9
48481
49191.4
49843.9
50432.3
50945.3
51371.5
51702
51931.9
52060.8
52092
52030.7
51885.5
51663
51362.3
51017.8
50650.2
50289.4
49963.2
49688.2
49472.9
49321.8
49244.4
49243.5
49310.5
49433.1
49595.5
49771.5
49927.5
50034
50071.7
50016.5
49844.2
49576.3
49212.2
48759.1
48220.8
47603.4
46914.6
46162
45358.6
44494.5
43581.9
42641
41698
40764.8
39852.4
38978.2
38164.9
37420.6
36749.9
36168.8
35680.7
35271.6
34927.1
34631.8
34364.8
34101.1
33812.7
33471.6
33058.1
32562.4
31984.9
31335.7
30630.7
29889.7
29139.9
28418.6
27761
27187.7
26762.6
26436.4
26147.6
30516.3
2952.08
3813.91
3204.04
2882.06
2691.81
2568.75
2499.41
2477.62
2492.16
2533.58
2592.8
2662.36
2739.13
2819.46
2897.12
2964.43
3012.78
3031.53
3007.66
2930.48
2797.15
2612.79
2388.43
2152.15
1917.53
1670.36
1426.39
1202.66
1015.67
880.187
807.832
806.018
877.512
1020.49
1229.1
1494.41
1805.61
2151.18
2519.92
2901.4
3286.33
3666.83
4036.73
4391.45
4727.84
5043.44
5337
5609.87
5863.96
6101.49
6325.63
6540.29
6750.44
6961.88
7180.58
7413.32
7667.8
7952.22
8275.18
8645.56
9072.33
9563.99
10128.6
10773.6
11505.6
12330.4
13252.8
14277.1
15407.2
16647.6
18004.2
19482.5
21076.4
22764.2
24522.7
26317.4
28106.1
29863.3
31598.6
33288.4
34898.5
36411
37827
39158.3
40403.4
41554
42605.6
43558.5
44415.9
45179.9
45869.3
46504.4
47092.8
47649.5
48190.7
48731.8
49286.7
49868.2
50488.8
51159
51885.4
52668
53500.7
54374.1
55277.8
56200.2
57120.3
58001.1
58821.2
59569.4
60228.6
60780.2
61208.9
61504.7
61665
61695.3
61609.1
61423.8
61158.2
60829.4
60444.5
60019.7
59579.6
59143.4
58731
58347.1
58010
57746.9
57572.5
57493
57498.2
57568.7
57679.8
57777.9
57862
57903.3
57884.5
57785.2
57578.3
57249.6
56794.2
56208.7
55494.8
54664.5
53736.9
52736.8
51688.3
50621.3
49541.3
48454
47375.8
46281.8
45192.3
44146.9
43162.9
42252.5
41423.9
40699.5
40088.1
39575.6
39146.3
38783.9
38463
38153.4
37821.5
37432.9
36962.6
36398.5
35739.8
34996.6
34185.7
33327.5
32449
31589.2
30781.4
30052.1
29461.7
28963.1
28526.5
16616.3
4182.12
4508.68
3812.58
3465.95
3249.07
3097.59
3012.16
2985.91
2994.12
3020.15
3054.53
3087.92
3116.55
3137.19
3143.14
3126.5
3079.98
2996.33
2868.25
2690.17
2462.57
2194.74
1901.19
1598.55
1303.75
1044.95
824.235
650.308
537.616
497.422
536.892
658.687
860.983
1137.88
1480.19
1876.56
2314.63
2782.02
3266.66
3757.78
4246.39
4725.23
5188.44
5632.2
6054.42
6454.55
6833.36
7192.89
7536.31
7867.88
8192.71
8516.5
8846.41
9190.6
9556.44
9952.08
10361.4
10807
11305.1
11869
12512.1
13245.5
14078.6
15019.9
16077.3
17256.1
18558.8
19986
21536.9
23209.2
25004.3
26930.6
28974.4
31079
33186.4
35270
37313.9
39306.3
41274.5
43213.6
45062.4
46797.5
48433.5
49973.3
51403.1
52705.1
53867.9
54896.5
55803.1
56593.6
57294.2
57931.8
58518.4
59075.7
59626.9
60193.2
60792.6
61441.2
62154.7
62946.9
63826.8
64795
65843.5
66959.2
68114.5
69308.5
70599.9
71861.9
72989.9
73962.7
74754.2
75333.9
75679.3
75779.9
75639.6
75279.3
74735.9
74050.2
73263.8
72466.9
71723.6
70955.6
70189.2
69462.1
68795.7
68210.8
67712.4
67315.2
67034.9
66873.6
66824.1
66875.2
67009.1
67192.3
67392.5
67573.1
67694.1
67758.5
67748.1
67512.6
67028.5
66293.2
65309.2
64100.1
62706.8
61176.9
59569.3
58015.8
56514.4
55037.1
53608.1
52255.5
50969
49756.3
48598.2
47497.9
46494.3
45610
44853.6
44219.8
43692.4
43254.7
42874.2
42512.2
42125.5
41679
41142.4
40501.2
39752.8
38908.4
37987.8
37013.4
36010.7
35018.3
34058.4
33167.9
32405.9
31725.7
31134.4
6621.51
5559.53
5120.7
4342.2
3963.23
3712.51
3551.45
3478.19
3450.45
3434.09
3417.88
3402.82
3390.76
3372.48
3336.03
3274.71
3182.15
3053.14
2883.96
2671.37
2414.96
2119.79
1797.58
1465.11
1141.18
844.91
594.392
405.284
295.551
268.233
332.503
492.886
749.16
1096.72
1527.06
2028.69
2588.16
3191.51
3825.18
4476.59
5134.25
5788.64
6432.16
7059.21
7666.43
8204.24
8599.37
8976.96
9344.61
9702.64
10059.7
10426.6
10812.9
11229.6
11685.4
12185.7
12739.7
13355
14039.6
14803.2
15656.1
16608.3
17666.8
18840.9
20141.3
21574.3
23145.5
24857.8
26711.5
28704.7
30836.2
33118.7
35606.8
38346.5
41298.3
44392.4
47531.7
50629.8
53637.2
56590.5
59453.5
62101.5
64458.2
66559.2
68461.4
70143.3
71576.5
72754.6
73697.7
74442.5
75035.1
75507.3
75890.2
76230.8
76572.1
76955.3
77417.1
77987
78689.3
79545.3
80573.6
81783.9
83169.8
84707.2
86360.1
88085.6
89839.8
91559.6
93139.9
94506.8
95614.8
96428.6
96917.1
97055.2
96832.5
96257
95358.1
94189.1
92814.3
91292.5
89677.1
88003.9
86321.1
84699.8
83189.6
81844.2
80767.6
79931.4
79265.2
78787.6
78511.3
78432.5
78535.5
78840.1
79399.7
80034.1
80654.7
81186.1
81538.2
81615.4
81361
80761.2
79805.6
78500.3
76872.7
74970
72852.1
70588.5
68250.7
65878.4
63527.5
61272.9
59288
57515.5
55882.6
54412.9
53090.6
51904.5
50860.1
49926.9
49148.5
48509.4
47991.3
47553.5
47144.2
46684.3
46156.7
45535.3
44801.7
43949.3
42991.8
41955.5
40866.6
39751.9
38646.2
37540.9
36487.9
35556.8
34689.3
33940.1
2765.1
6918.83
5590.02
4741.08
4327
4071.65
3952.16
3896.61
3836.36
3769.41
3699.89
3632.69
3581.16
3525.46
3440.96
3322.89
3168.07
2972.9
2736.98
2461.64
2148.94
1806.05
1447.03
1091.27
760.957
478.48
264.513
136.821
109.397
192.462
395.349
720.768
1167.38
1720.19
2324.66
3003.35
3739.43
4519.35
5330.91
6163.11
7006.58
7852.89
8696.29
9533.38
10361
11176.1
11976.8
12764.8
13549.5
14329.6
15109.5
15905.4
16722.6
17568.8
18452.4
19382.2
20366.8
21414.7
22534.4
23734.7
25024.8
26413.4
27910.5
29526.8
31273.1
33159.9
35197.4
37393.5
39752.1
42272.1
44949.8
47795.1
50865.8
54211.7
57700.2
61423.3
65611.7
70014.1
74412.1
78923.6
83557.1
88067
92235.9
96059.3
98183.8
99923.5
101263
102218
102834
103173
103311
103312
103230
103123
103049
103069
103232
103580
104140
104936
105988
107303
108868
110640
112553
114537
116538
118452
120199
121678
122827
123623
124033
124024
123573
122681
121367
119684
117693
115462
113040
110477
107888
105356
102971
100805
98910.2
97303.5
96015.8
95082
94514.1
94306.4
94433.8
94847.6
95454.8
96136.7
96798.7
97331.7
97615.2
97554
97146.7
96371
95222.9
93701.9
91820.3
89604.8
87090.4
84332.9
81353.3
78229
75058.4
71935.8
68952.6
66133.6
63534.7
61325.3
59471.9
57843.2
56444.6
55282.9
54330.9
53567.2
52961.3
52472.4
52048.8
51634.5
51163.2
50579.8
49838.4
48912.2
47810.7
46568.5
45228
43841.7
42465.9
41160.2
39948.5
38866
37811.5
36905
7956.15
8328.47
5859.21
4945.92
4511.94
4277.64
4192.48
4129.24
4036.78
3942.85
3852.65
3775.63
3713.42
3627.73
3498.64
3331.62
3128.32
2887.66
2610.08
2295.93
1946.69
1570.23
1183
810.44
482.134
226.458
67.1004
31.1372
128.836
373.359
778.646
1354.74
2104.54
3024.24
4104.23
5328.45
6677.02
8127.96
9659.23
11249
12876.1
14519.6
16162.9
17792.1
19397.5
20973.6
22514.5
24022.2
25498.5
26949.2
28385.2
29816
31248.5
32692.5
34156.7
35648.5
37174.5
38740.7
40353.1
42018.3
43743.5
45537.9
47417.3
49397.2
51494.9
53735.6
56147.2
58759.3
61602.8
64707.7
68097.7
71750.2
75761.3
80480.6
85768
91173.2
96743.7
102364
107833
113268
118711
124013
129095
133630
135634
137144
138116
138561
138559
138208
137610
136854
136006
135126
134279
133537
132965
132612
132512
132692
133177
133984
135107
136507
138118
139875
141741
143663
145527
147186
148540
149542
150146
150294
149935
149047
147640
145758
143470
140863
138010
134987
131866
128728
125663
122758
120064
117656
115610
113971
112765
111980
111573
111469
111539
111726
111926
112057
112040
111811
111310
110502
109364
107872
106019
103806
101249
98385.9
95255.5
91904.4
88370.3
84734.9
81025.8
77364
73878.2
70671.8
67776.3
65219.4
63083
61475.3
60201
59223.5
58515.5
58025.7
57704.1
57549.6
57373.8
57035.6
56437.6
55514.7
54257.1
52699.6
50909.7
48981.4
47033.5
45275.2
43698.3
42297.4
41021.4
39962.7
21405
9089.88
5924.62
4966.09
4506.49
4261.53
4167.22
4116.86
4061.65
4011.1
3965.23
3919.71
3841.33
3707.63
3529.08
3319.88
3084.98
2825.24
2533.24
2195.02
1811.33
1361.63
900.289
541.099
264.172
80.5169
26.6286
150.336
502.644
1132.53
2082.66
3382.73
5049.69
7084.1
9471.77
12176.4
15146.4
18323.7
21645.4
25049.7
28479.7
31877.1
35186.9
38372.1
41415.9
44304.9
47029.7
49598.4
52013.5
54305.9
56500
58594.9
60610.8
62564.6
64468.3
66330.7