/*--------------------------------*- C++ -*----------------------------------*\
| =========                 |                                                 |
| \\      /  F ield         | OpenFOAM: The Open Source CFD Toolbox           |
|  \\    /   O peration     | Version:  2312                                  |
|   \\  /    A nd           | Website:  www.openfoam.com                      |
|    \\/     M anipulation  |                                                 |
\*---------------------------------------------------------------------------*/
FoamFile
{
    version     2.0;
    format      ascii;
    arch        "LSB;label=32;scalar=64";
    class       volScalarField;
    location    "0.2";
    object      PwMean;
}
// * * * * * * * * * * * * * * * * * * * * * * * * * * * * * * * * * * * * * //

dimensions      [0 0 -2 0 0 0 0];

internalField   nonuniform List<scalar> 
12225
(
5.17192e+08
5.49256e+08
3.79909e+08
2.5443e+08
1.8954e+08
1.55997e+08
1.36674e+08
1.25688e+08
1.19469e+08
1.15552e+08
1.12604e+08
1.10357e+08
1.08475e+08
1.07148e+08
1.06219e+08
1.05266e+08
1.06387e+08
1.01086e+08
352479
219648
1.35578e+07
3.80691e+07
5.74355e+07
6.24647e+07
6.12814e+07
5.77622e+07
5.38904e+07
5.04482e+07
4.7578e+07
4.51989e+07
4.32148e+07
4.15381e+07
4.00229e+07
3.90197e+07
3.70992e+07
3.80448e+07
81665.3
28342
91532.6
1.0326e+06
3.42818e+06
6.34857e+06
8.95973e+06
1.09381e+07
1.24354e+07
1.36402e+07
1.45429e+07
1.49037e+07
1.50045e+07
1.49215e+07
1.47721e+07
1.45072e+07
1.41209e+07
1.37718e+07
48159.3
23354.8
53541.8
56836.1
18689.6
105147
365932
728082
1.13223e+06
1.54428e+06
1.95143e+06
2.33179e+06
2.68438e+06
2.98858e+06
3.2512e+06
3.46145e+06
3.60842e+06
3.74856e+06
43339.7
23201.2
41155.8
52280
37380.2
19558.7
4883.52
1197.78
8869.13
27149.9
55390.7
94436.5
141713
198135
255679
321061
374188
446202
37572.3
18007.8
28752.5
35698.8
33756.1
24568
15622.1
9319.74
5526.01
3232.66
1843.84
996.583
751.623
1048.59
1728.19
2984.57
4081.75
6789.41
36015.4
14635.5
20522.6
27330.9
27112.7
19824.1
12412.2
8005.03
5710.55
4532.21
3874.03
3432.87
3165.19
2921.43
2805.87
2585.66
2453.1
2021.67
33556.3
12414.1
15152.7
20072.7
21364.1
17196.7
11400.9
7531.11
5491.77
4438.98
3866.55
3542.63
3392.04
3327.63
3342.45
3336.27
3314.34
3130.14
30163.4
9717.73
11305
14819.7
15824.7
13682.1
10116.1
7251.04
5563.43
4593.79
4016.11
3665.41
3479.71
3387.32
3357.9
3324.72
3268.4
3109.36
29748.8
9879.69
9396.28
11311.1
11885.9
10534.5
8362.14
6508.34
5316.13
4566.66
4077.62
3751.92
3555.01
3433.94
3361.21
3285.66
3193.31
3029.51
29807.8
9015.12
7461.55
8465.02
8918.81
8131.01
6744.31
5521.63
4710.11
4187.34
3830.17
3577.78
3410.98
3296.13
3212.51
3123.44
3021.48
2870.91
27935.3
8179.11
6137.89
6592.45
6935.06
6458.13
5511.86
4639.17
4045
3661.57
3396.22
3204.01
3070.02
2972.83
2895.28
2813.05
2719.69
2596.17
25605.5
7503.88
5329.48
5348.08
5507.66
5178.68
4514.71
3875.57
3420.36
3117.02
2901.71
2741.42
2623.98
2535.18
2461.04
2386.51
2303.6
2206.77
22738.1
7075.93
4933.47
4532.22
4448.23
4159.97
3682.91
3210.44
2849.3
2592.06
2401.03
2252.75
2137.21
2045.08
1966.3
1892.48
1815.72
1737.86
18504.4
5973.36
4219.81
3705.26
3528.78
3295.79
2965.48
2626.37
2342.98
2122.76
1948.81
1807.08
1690.42
1593.15
1508.97
1433.47
1360.31
1293.22
16677.7
4856.61
3485.2
3001.34
2829.07
2663.92
2440.88
2197.06
1972.05
1779.84
1617.44
1478.8
1359.96
1257.99
1169.08
1091.29
1019.21
956.727
14359
4363.58
3380.16
2866.81
2609.7
2415.56
2208.55
1990.35
1779.83
1588.59
1419.7
1272.45
1145.06
1035.62
940.856
859.991
787.265
726.644
12382
3377.45
2808.29
2389.15
2153.52
1998.33
1847.33
1682.76
1510.72
1341.98
1185.25
1045.76
924.879
821.781
733.576
659.514
594.429
540.903
11538.5
3157.68
2638.8
2302.72
2134.04
2026.49
1904.29
1752.45
1578.94
1399.53
1229.46
1078.47
949.413
841.154
749.824
673.901
608.175
553.727
13228.2
3862.69
2975.42
2536.99
2416.59
2381.06
2303.54
2149.93
1935.95
1700
1477.71
1287.66
1131.82
1005.09
900.389
814.597
741.808
682.597
15326.4
4915.34
3726.76
3210.38
3151.89
3214.44
3187.72
2996.5
2673.12
2305.02
1968.18
1693.88
1478.2
1307.33
1168.79
1057.45
965.103
891.731
16406.6
5349.53
4051.56
3738.42
3967.7
4307.43
4415.57
4168.09
3651.34
3061.64
2549.18
2156.59
1860.48
1631.19
1448.48
1304.75
1188.45
1098.04
18325.2
6293.45
4867.23
4818.43
5589.35
6434.1
6697.52
6194.13
5163.07
4072.92
3210
2602.07
2171.73
1854.75
1613.45
1431.44
1290.26
1183.59
19464.4
6601.3
5123.85
5713.83
7711.69
9653.46
10323
9250.12
7195.09
5259.34
3869.71
2961.64
2364.52
1954.5
1662.96
1453.41
1297.53
1180.86
22096.6
7135.89
5641.88
7255.46
11450.1
14690.3
15256.6
13108.5
9788.32
6884.1
4841.75
3495.36
2607.48
2004.68
1575.71
1265.79
1019.91
832.881
23859.1
7730.23
6194.26
9670.01
18130.8
23912.2
23675.9
17687.7
10603.6
5713.74
2628.57
976.993
406.353
732.722
1848.41
3627.67
6203.02
9282.17
28149.4
8028.29
6795.54
12873.1
29375.7
33292.8
19471.4
5067.35
15574
52785.3
108129
174563
249255
329329
414116
500294
589980
676237
34034.1
9258.14
14337.9
13519.5
94506.6
327130
851841
1.64386e+06
2.55536e+06
3.40486e+06
4.11538e+06
4.69338e+06
5.16936e+06
5.56946e+06
5.92962e+06
6.24825e+06
6.5672e+06
6.83631e+06
55999.4
136378
854381
1.8511e+06
8.62465e+06
1.75359e+07
2.7582e+07
3.21974e+07
3.4157e+07
3.41165e+07
3.31146e+07
3.18699e+07
3.06109e+07
2.94382e+07
2.83765e+07
2.74364e+07
2.65822e+07
2.58305e+07
3.09877e+08
3.04221e+08
2.78726e+08
2.67655e+08
2.00798e+08
1.48817e+08
1.17474e+08
9.82882e+07
8.57042e+07
7.76879e+07
7.26006e+07
6.90929e+07
6.64839e+07
6.44078e+07
6.26397e+07
6.11371e+07
5.97684e+07
5.8658e+07
418.502
210.846
237.479
1374.02
3339.45
5486
7492.49
9366.22
11102.7
12713
14195.9
15528.8
16680.3
17625.4
18343.4
18810.9
19017.2
18967.1
18679
18181.5
17511.3
16713.2
15841.2
14964.1
14164.8
13544.8
13201.1
13198.2
13518.7
14009.4
14459.2
14763.4
14924
14973.5
14937.4
14825.6
14636.8
14360.9
13979.2
13467.1
12798.2
11947.6
10893.9
9624.96
8147.5
6518.94
4875.45
3445.85
2571.49
2696.84
4383.11
8366.64
15671.1
27661.3
45315.2
68136.8
94760.7
124088
155116
188105
223610
261340
300862
341799
383838
426710
470180
514041
558114
602243
646290
690133
733658
776763
819353
861350
902682
943279
983080
1.02203e+06
1.06007e+06
1.09715e+06
1.13323e+06
1.16827e+06
1.20223e+06
1.23507e+06
1.26675e+06
1.29724e+06
1.3265e+06
1.3545e+06
1.3812e+06
1.40656e+06
1.43055e+06
1.45314e+06
1.47427e+06
1.49393e+06
1.51207e+06
1.52866e+06
1.54366e+06
1.55704e+06
1.56878e+06
1.57884e+06
1.58718e+06
1.5938e+06
1.59866e+06
1.60175e+06
1.60305e+06
1.60255e+06
1.60025e+06
1.59615e+06
1.59024e+06
1.58251e+06
1.573e+06
1.5617e+06
1.54864e+06
1.53383e+06
1.51731e+06
1.49909e+06
1.47921e+06
1.4577e+06
1.43461e+06
1.40996e+06
1.38382e+06
1.35622e+06
1.32722e+06
1.29688e+06
1.26526e+06
1.23241e+06
1.19841e+06
1.16332e+06
1.12722e+06
1.09018e+06
1.05227e+06
1.01359e+06
974208
934218
893708
852772
811507
770015
728397
686762
645220
603887
562879
522319
482332
443047
404599
367125
330766
295668
261980
229856
199454
170934
144459
120192
98297.5
78935.2
62259.8
48416.6
37539.3
29751
25160.8
23861.5
25926.6
31406.7
40328.3
52686.8
68443.3
87495.9
109716
134770
162640
191839
224709
250128
293885
285625
268.971
1049.17
3593.06
4848.29
4833.82
4265.8
3487.3
2680.59
1952.51
1352.74
890.781
555.676
328.381
188.103
115.228
91.9515
103.964
141.134
195.543
260.434
329.324
395.803
454.163
500.846
536.604
569.647
619.094
713.512
870.824
1103.7
1445.7
1933.72
2588.86
3421.15
4444.59
5687.14
7198.47
9056.3
11369.7
14278.8
17948.8
22559
28290.7
35323
43843.2
54047.2
66016.6
79526.4
93999.7
108611
122430
134523
144060
150345
153357
153564
151712
148718
145294
141750
138360
135262
132510
130103
128014
126210
124656
123314
122149
121128
120221
119400
118645
117939
117264
116602
115939
115263
114565
113834
113064
112248
111379
110452
109462
108404
107276
106074
104796
103439
102004
100488
98891.3
97214.8
95459
93625.1
91715
89730.9
87675.4
85552.2
83365.2
81119
78818.2
76467.6
74072.1
71636.4
69164.6
66660.5
64128.9
61573.9
59000.9
56415.1
53821.5
51224.6
48630.6
46044.8
43473.6
40923.1
38400.3
35911.7
33464.2
31064.6
28719.7
26436.1
24220.5
22079.2
20018.6
18044.5
16163
14379.8
12700.1
11129.2
9671.75
8332.29
7114.86
6023.11
5060.25
4229.07
3531.87
2970.45
2546.16
2259.8
2111.66
2101.53
2228.68
2491.86
2889.35
3418.96
4078.03
4863.5
5771.94
6799.56
7942.27
9195.79
10555.7
12017.4
13576.5
15228.9
16971.4
18802.7
20722.8
22735.7
24848.5
27065.1
29391
31834.4
34404.7
37114.1
39976
43005.7
46222.6
49660.8
53352.5
57364.7
61645.6
66548.8
71187.6
78818.8
82876.7
101177
736.147
6903.89
8437.77
5234.22
2923.46
1697.73
997.61
574.844
331.168
207.472
164.108
175.508
225.631
304.049
403.194
518.505
648.144
791.379
948.752
1122.24
1315.14
1532.02
1777.91
2056.9
2372.69
2713.71
3049.56
3368.23
3699.29
4092.03
4587.57
5224.05
6044.7
7094.78
8425.68
10099.9
12192.5
14789.3
17981.7
21855.5
26464.9
31795.2
37729.4
44010.4
50259.4
56043.7
60858.2
64154.7
65489.8
64675.7
61919.9
57805.3
53120.9
48636.5
44811.3
41642.7
38844.8
36084
33215.3
30301.4
27462.6
24787.7
22319.1
20070.7
18038.2
16208.5
14564.8
13089.3
11764.1
10572.8
9500.03
8532.04
7656.3
6861.95
6139.96
5482.95
4884.39
4338.71
3841.07
3387.27
2973.63
2596.93
2254.33
1943.31
1661.65
1407.35
1178.63
973.906
791.789
631.076
490.722
369.829
267.631
183.47
116.782
67.083
33.9567
17.0369
15.9891
30.5049
60.3208
105.214
165.009
239.583
328.844
432.73
551.177
684.078
831.329
992.811
1168.39
1357.9
1561.1
1777.7
2007.38
2249.85
2504.74
2771.75
3050.54
3340.82
3642.29
3954.61
4277.5
4610.6
4953.58
5306.1
5667.83
6038.41
6417.48
6804.7
7199.69
7602.09
8011.52
8427.62
8849.99
9278.18
9711.78
10150.4
10593.4
11040.6
11491.3
11945.1
12401.5
12860
13320.1
13781.2
14243
14704.8
15166.3
15627
16086.5
16544.4
17000.3
17454
17905.3
18354.2
18800.7
19245.5
19689.4
20134
20580.8
21031.8
21488.4
21951.8
22423.5
22906.4
23403.3
23917.8
24454
25017.9
25616.7
26262.9
26961.5
27737.6
28562.5
29624.3
30560.1
32747.9
33911.4
40433.7
6570.16
13369.3
6488.35
2010.02
772.497
365.627
185.486
103.221
74.7076
80.1502
110.242
160.512
228.81
314.026
415.386
533.055
668.327
823.061
1000.28
1204.51
1441.54
1717.93
2039.88
2410.49
2826.18
3276.08
3744.83
4213.86
4683.65
5202.21
5852.76
6705.7
7810.61
9206.99
10928.6
13002.8
15438.7
18212.7
21256.7
24451
27611.4
30485.7
32793.5
34282.4
34766.2
34179.9
32620.9
30309
27515.1
24498.1
21476
18615.3
16039.1
13833
12039.7
10632.4
9525.84
8613.79
7804.3
7053.54
6353.76
5708.92
5124.03
4601.71
4141.66
3741.22
3396.32
3102.3
2854.31
2647.74
2478.43
2342.7
2237.35
2159.64
2107.21
2078.03
2070.29
2082.37
2112.8
2160.22
2223.37
2301.05
2392.15
2495.63
2610.55
2736.04
2871.34
3015.78
3168.79
3329.89
3498.65
3674.75
3857.9
4047.84
4244.35
4447.2
4656.15
4870.95
5091.47
5317.6
5549.28
5786.41
6028.82
6276.42
6529.02
6786.41
7048.28
7314.19
7583.79
7856.68
8132.49
8410.82
8691.26
8973.36
9256.73
9540.97
9825.71
10110.6
10395.3
10679.6
10963.1
11245.5
11526.6
11806.1
12083.8
12359.4
12632.7
12903.5
13171.7
13436.9
13699.1
13958.1
14213.8
14466
14714.6
14959.4
15200.4
15437.4
15670.4
15899.2
16123.7
16343.8
16559.4
16770.4
16976.7
17178.2
17374.8
17566.5
17753.2
17934.9
18111.6
18283.4
18450.2
18612.2
18769.6
18922.7
19071.7
19217.4
19360.3
19501.4
19641.2
19779.8
19917.5
20054.5
20191.5
20329.4
20469.6
20613.4
20762.9
20920.7
21090.1
21275.9
21479
21715.9
21976.3
22375.7
22743.6
23780.2
24630.8
27618.3
22493.9
13169.4
2165.22
405.649
175.036
77.4926
28.9858
12.2411
18.8238
44.4957
86.9752
145.149
218.787
308.223
414.144
538.021
682.282
850.227
1046.37
1276.53
1547.69
1867.55
2243.21
2678.6
3171.15
3712.03
4290.03
4900.44
5568.01
6344.88
7282.14
8419.41
9776.81
11350.7
13109.3
14987.8
16888.7
18688.1
20238.2
21377.1
21972.1
21951.7
21307.7
20106.7
18487.8
16621.2
14669
12760.7
10981.1
9375.73
7964.51
6753.6
5742.53
4925.74
4293.2
3826.78
3499.63
3280.51
3139.35
3053.16
3007.26
2992.51
3003.08
3035.01
3085.45
3152.11
3233.07
3326.78
3431.93
3547.49
3672.66
3806.85
3949.67
4100.87
4260.29
4427.79
4603.17
4786.23
4976.67
5174.11
5378.11
5588.15
5803.68
6024.14
6248.99
6477.75
6709.97
6945.3
7183.45
7424.21
7667.42
7912.96
8160.75
8410.68
8662.66
8916.55
9172.29
9429.87
9689.3
9950.37
10212.9
10476.9
10742
11008.2
11275.1
11542.4
11809.8
12077
12343.8
12609.8
12874.6
13138
13399.5
13658.8
13915.7
14169.7
14420.5
14668
14911.7
15151.4
15386.9
15618
15844.4
16066
16282.4
16493.6
16699.5
16899.9
17094.7
17283.7
17467
17644.5
17816
17981.6
18141.2
18294.8
18442.4
18584
18719.6
18849.2
18972.8
19090.4
19201.9
19307.3
19406.8
19500.2
19587.7
19669.1
19744.7
19814.4
19878.3
19936.6
19989.5
20037.1
20079.7
20117.6
20151.2
20181
20207.3
20230.7
20251.4
20269.4
20284.6
20297.2
20307.3
20315.5
20322.6
20329.4
20337.3
20347.8
20362.8
20385.6
20418.1
20473.5
20551.2
20730.7
20928.1
21553.9
22262
23910.8
42344
8438
307.666
174.787
127.396
70.3095
39.1586
31.0681
42.0994
69.9664
113.533
172.522
247.394
339.189
449.511
580.687
735.896
919.359
1136.5
1394.09
1700.17
2063.36
2491.39
2988.9
3555.91
4188.54
4882.17
5637.55
6466.34
7387.19
8412.57
9537.52
10731.5
11935.4
13068.1
14037.1
14746.6
15110.1
15076.5
14645.8
13864
12812.1
11589.1
10293.3
9013.51
7819.48
6754
5834.51
5059.37
4416.94
3892.07
3470.22
3139.48
2891.22
2719.4
2619.15
2584.71
2608.65
2682.14
2796.19
2942.72
3114.89
3306.92
3514.2
3733.11
3960.87
4195.4
4435.21
4679.27
4926.98
5178
5432.28
5689.91
5951.1
6216.1
6485.15
6758.39
7035.87
7317.49
7603.01
7892.07
8184.18
8478.82
8775.43
9073.5
9372.55
9672.19
9972.13
10272.1
10572.1
10872
11171.6
11471.1
11770.3
12069.2
12367.7
12665.7
12963.2
13260.1
13556.2
13851.3
14145.2
14437.6
14728.4
15017.2
15303.7
15587.6
15868.8
16146.8
16421.4
16692.2
16959
17221.3
17478.9
17731.5
17978.7
18220.3
18456
18685.5
18908.5
19125
19334.5
19537
19732.3
19920.2
20100.5
20273.2
20438.2
20595.5
20744.9
20886.5
21020.3
21146.3
21264.4
21374.8
21477.4
21572.4
21659.8
21739.7
21812.2
21877.2
21934.9
21985.3
22028.5
22064.5
22093.5
22115.4
22130.5
22138.8
22140.4
22135.4
22124.2
22106.9
22083.8
22055.2
22021.4
21982.7
21939.7
21892.6
21841.7
21787.2
21729.2
21667.7
21602.8
21534.5
21463.2
21389.3
21313.7
21237.3
21161.3
21087.1
21018
20957
20916.2
20899.9
20967.5
21077.1
21495
22069.8
23068.4
59051.1
4347.42
154.701
364.531
277.02
203.204
162.736
147.536
152.476
175.055
214.332
270.354
343.918
436.509
550.264
688.028
853.555
1051.68
1288.42
1571
1907.49
2305.99
2773.1
3312.23
3922.21
4596.82
5326.31
6099.93
6905.75
7727.34
8538.58
9300.92
9966.59
10482.5
10794
10857.2
10655.6
10205.9
9552.57
8757.98
7889.4
7009.22
6170.2
5410.04
4749.8
4197.05
3749.69
3399.19
3133.57
2939.78
2805.41
2719.87
2675.13
2666.12
2690.62
2748.57
2840.67
2967.09
3126.71
3317.13
3535.07
3776.82
4038.6
4316.87
4608.52
4910.92
5221.94
5539.95
5863.73
6192.43
6525.53
6862.77
7204.07
7549.46
7898.97
8252.67
8610.53
8972.39
9337.97
9706.81
10078.3
10451.7
10826.4
11201.5
11576.4
11950.4
12323.2
12694.5
13063.9
13431.5
13797.1
14160.7
14522.2
14881.7
15239
15594.2
15946.9
16297.2
16644.7
16989.2
17330.6
17668.5
18002.7
18332.7
18658.3
18979.2
19295
19605.5
19910.4
20209.3
20501.9
20787.8
21066.8
21338.5
21602.6
21858.7
22106.7
22346.2
22577
22798.8
23011.5
23214.7
23408.4
23592.4
23766.5
23930.7
24084.9
24229.1
24363.2
24487.4
24601.5
24705.6
24799.9
24884.4
24959.2
25024.4
25080.2
25126.8
25164.2
25192.6
25212.1
25222.9
25225
25218.5
25203.7
25180.6
25149.5
25110.4
25063.6
25009.2
24947.4
24878.5
24802.9
24720.7
24632.4
24538.3
24438.7
24334
24224.6
24110.8
23992.8
23870.7
23744.8
23615.1
23481.7
23344.8
23204.9
23062.5
22918.5
22774
22630.5
22491.3
22360.4
22249.3
22165
22153.6
22194.2
22472.5
22909.8
23531
67786.3
1973.57
587.214
695.16
547.906
447.991
389.684
360.712
354.632
368.492
401.16
452.564
523.6
615.941
731.89
874.439
1047.37
1255.35
1503.98
1799.57
2148.5
2556.04
3024.76
3552.7
4131.63
4746.24
5375.52
5994.82
6576.93
7092.82
7513.35
7809.05
7951.47
7921.47
7717.72
7357.27
6872.62
6306.64
5704.96
5109.05
4552.12
4057.1
3636.91
3296.24
3033.46
2842.81
2716.32
2645.06
2620.11
2633.14
2676.77
2745
2833.47
2939.8
3063.6
3206.16
3369.67
3556.36
3767.72
4004.21
4265.24
4549.39
4854.75
5179.19
5520.54
5876.74
6245.97
6626.68
7017.6
7417.69
7826.18
8242.43
8665.97
9096.39
9533.3
9976.34
10425.1
10879
11337.3
11799.1
12263.5
12729.3
13195.6
13661.1
14125.1
14586.9
15045.8
15501.6
15954
16402.8
16848
17289.5
17727.3
18161.2
18591.1
19016.9
19438.2
19854.8
20266.4
20672.7
21073.4
21468.2
21856.6
22238.3
22612.9
22980.2
23339.6
23691
24033.9
24367.9
24692.9
25008.3
25313.8
25609.1
25893.9
26167.9
26430.7
26682.1
26921.9
27149.7
27365.5
27569.1
27760.2
27938.8
28104.8
28258
28398.5
28526.4
28641.6
28744.2
28834.4
28912.2
28977.8
29031.4
29073.1
29103.1
29121.8
29129.2
29125.7
29111.4
29086.6
29051.5
29006.2
28951
28886.1
28811.7
28728.2
28635.7
28534.5
28424.7
28306.6
28180.6
28047.1
27906.3
27758.7
27604.5
27444.1
27278.1
27106.8
26930.4
26749.4
26564
26374.5
26181.2
25984.1
25783.4
25579.5
25373.1
25164.9
24956.2
24748.6
24545.4
24351.5
24177.5
24031.8
23950.7
23924.4
24089.1
24387.5
24757
68590.2
992.225
1199.85
1122.69
918.478
788.523
708.773
663.178
644.206
648.245
673.484
719.512
787.084
877.571
992.913
1135.58
1308.41
1514.59
1758
2042.06
2369.34
2739.95
3150.15
3590.9
4047.24
4499.07
4922.98
5294.83
5591.81
5792.93
5880.79
5846.8
5694.16
5437.17
5099.16
4709.7
4299.81
3897.66
3525.77
3200
2929.86
2719.29
2567.77
2471.74
2425.94
2424.31
2460.71
2529.28
2624.65
2742.05
2877.45
3027.65
3190.53
3365.19
3552.08
3752.83
3969.83
4205.7
4462.72
4742.53
5045.97
5373.18
5723.64
6096.41
6490.23
6903.7
7335.41
7784.05
8248.39
8727.33
9219.84
9724.9
10241.6
10769
11306.2
11852.4
12406.6
12967.8
13534.5
14105.4
14678.9
15253.3
15827.2
16399.4
16968.8
17534.4
18095.6
18652
19203.2
19749
20289.4
20824.2
21353.2
21876.2
22393.1
22903.5
23406.8
23902.9
24391.2
24871.5
25343.3
25806.3
26259.9
26703.8
27137.5
27560.6
27972.7
28373.5
28762.4
29139.3
29503.6
29855
30193
30517.4
30827.8
31123.9
31405.4
31672
31923.5
32159.8
32380.5
32585.7
32775.1
32948.7
33106.4
33248.2
33374.2
33484.4
33579
33658.1
33721.8
33770.5
33804.3
33823.5
33828.4
33819.3
33796.5
33760.4
33711.2
33649.3
33575.1
33488.8
33390.7
33281.2
33160.5
33029.2
32887.6
32735.8
32574.2
32403.2
32223
32034.1
31836.8
31631.6
31418.7
31198.7
30971.9
30738.8
30499.9
30255.6
30006.2
29752.3
29494.4
29232.6
28967.1
28698.3
28426.6
28152.4
27876.9
27601
27326.9
27058
26799.4
26561
26351.8
26200.3
26102.6
26162.6
26324.8
26502.2
62422.2
904.091
1869.8
1614.1
1358.93
1200.76
1100.27
1038.27
1006.54
1000.58
1017.6
1056.92
1118.7
1203.42
1311.96
1445.4
1604.93
1790.89
1999.44
2234.13
2496.3
2779.83
3077.44
3377.7
3665.72
3924.55
4136.59
4285.07
4356.67
4344.88
4251.26
4085.04
3862.22
3603.24
3329.6
3061.15
2814.34
2601.31
2429.83
2303.59
2223.03
2186.26
2189.95
2230.07
2302.44
2402.97
2527.89
2673.81
2837.75
3017.21
3210.16
3415.11
3631.27
3858.65
4098.2
4351.58
4621.07
4909.18
5218.34
5550.63
5907.74
6290.74
6700.1
7135.75
7597.24
8083.82
8594.56
9128.42
9684.18
10260.4
10855.9
11469.4
12099.6
12745
13403.9
14074.9
14756.2
15446.2
16142.6
16843.4
17546.4
18249.7
18951.2
19649.3
20342.6
21030.2
21711.2
22385.2
23051.7
23710.6
24361.6
25004.5
25639.2
26265.3
26882.3
27489.9
28087.4
28674.4
29250.4
29815
30367.6
30907.9
31435.3
31949.3
32449.3
32934.9
33405.5
33860.8
34300.4
34723.8
35130.6
35520.4
35892.7
36247.3
36583.8
36901.8
37201.2
37481.6
37742.9
37985
38207.6
38410.8
38594.3
38758.3
38902.8
39027.7
39133.2
39219.4
39286.6
39335.1
39365
39376.8
39370.8
39347.4
39307
39250
39176.7
39087.8
38983.6
38864.6
38731.3
38584
38423.1
38249.1
38062.5
37863.9
37653.8
37432.4
37200.3
36957.8
36705.4
36443.6
36172.7
35893.2
35605.5
35310.1
35007.5
34698.2
34382.7
34061.6
33735.3
33404.5
33069.8
32731.6
32390.3
32045.9
31699.1
31350.4
31000.7
30651.4
30304.8
29964.4
29635.6
29327.1
29048.2
28820.8
28644.3
28599.7
28626.7
28641.7
51518.3
1359.23
2548.79
2133.9
1838.88
1657.49
1538.37
1460.79
1416.13
1398.94
1405.77
1435.22
1486.24
1557.8
1649.21
1759.71
1888.33
2033.22
2188.93
2344.43
2485.9
2657.7
2826.43
2982.78
3115.27
3211.91
3262.65
3261.6
3207.98
3106.15
2965.48
2798.86
2620.63
2444.86
2284.06
2148.05
2043.57
1974.27
1941.24
1943.65
1979.49
2046.14
2140.78
2260.68
2403.31
2566.41
2747.98
2946.35
3160.11
3388.15
3629.66
3884.22
4151.92
4433.49
4730.21
5043.73
5376.19
5730.02
6107.75
6511.73
6943.83
7405.42
7897.99
8422.46
8978.99
9567.24
10186.6
10836.1
11514.5
12220.3
12951.8
13706.8
14483.1
15278.3
16089.9
16915.4
17752.3
18598
19449.5
20304.1
21158.8
22011.3
22859.3
23701.1
24535.5
25361.3
26177.7
26984.3
27780.6
28566.2
29340.7
30104.1
30856
31595.9
32323.2
33037.3
33737.5
34423.1
35093.5
35748.4
36387.1
37009.2
37613.9
38200.8
38769.1
39318.3
39847.8
40357.3
40846.2
41314.1
41760.7
42185.4
42587.9
42967.8
43324.7
43658.5
43968.8
44255.6
44518.6
44757.9
44973.3
45164.9
45332.6
45476.6
45596.9
45693.7
45767.1
45817.5
45845.1
45850.5
45834
45796
45737.1
45657.8
45558.7
45440.2
45302.9
45147.4
44974.3
44784.3
44578.1
44356.2
44119.3
43867.9
43602.9
43324.7
43033.8
42730.6
42415.6
42089.3
41752.2
41404.8
41047.7
40681.4
40306.6
39923.6
39533.1
39135.7
38732
38322.6
37908
37489
37066.5
36641.1
36213.2
35783.3
35352.2
34920.4
34489
34059.4
33633.5
33214.7
32808.1
32421.4
32063.7
31751.5
31486.7
31333.7
31224.7
31094.6
38052.7
2154.45
3195.95
2653.97
2329.96
2128.88
1991.59
1897.53
1838.07
1806.73
1799.24
1813
1845.34
1893.6
1955.31
2027.88
2108.65
2194.51
2280.17
2356.79
2415.37
2451.67
2472.18
2510.78
2526.16
2513.69
2471.59
2401.46
2308.16
2198.99
2082.69
1968.56
1865.63
1781.62
1722.39
1691.61
1690.94
1720.38
1778.77
1864.36
1975.2
2109.37
2265.19
2441.23
2636.31
2849.53
3080.3
3328.16
3592.73
3873.91
4171.88
4487.13
4820.47
5172.81
5545.56
5941.13
6362.02
6810.67
7289.6
7801.29
8348.09
8932.08
9554.72
10216.8
10918.4
11659.2
12438.4
13254.4
14105.5
14989
15902.4
16842.3
17805.2
18787.6
19786.1
20797.3
21817.9
22844.5
23873.5
24901.2
25924.9
26941.9
27950.5
28948.9
29936.3
30911.6
31874.1
32823.3
33758.3
34678.8
35584.4
36474.7
37349.2
38207.3
39048.1
39870.9
40674.8
41459.3
42223.6
42967.4
43690
44390.8
45069.1
45724.1
46355.2
46961.8
47543.1
48098.9
48628.6
49131.8
49608
50057
50478.2
50871.4
51236.4
51572.8
51880.7
52159.7
52409.9
52631.4
52824
52988.1
53123.6
53230.8
53309.9
53361.1
53384.6
53380.9
53350.6
53294.2
53212.3
53105.6
52974.7
52820.4
52643.4
52444.5
52224.5
51984.4
51725.1
51447.6
51152.9
50842
50515.7
50174.4
49818.7
49448.9
49065.4
48668.6
48259
47836.9
47402.9
46957.5
46501.2
46034.8
45559
45074.4
44581.7
44081.6
43574.8
43062
42544.1
42022
41497
40969.8
40441.4
39912.8
39384.8
38858.2
38333.9
37813.5
37298
36790.2
36294.9
35818.9
35370.8
34962.9
34599.6
34332.1
34085.8
33818.9
24352.8
3169.27
3801.71
3156.91
2807.62
2584.78
2426
2311.82
2233.29
2182.64
2154.61
2145.15
2149.85
2164.52
2185.25
2208.35
2230.57
2249.01
2260.11
2258.8
2239.73
2199.47
2138.51
2060.43
1983.25
1915.85
1838.39
1754.93
1670.72
1591.66
1523.73
1472.45
1442.37
1436.82
1457.75
1505.83
1580.67
1681.25
1806.23
1954.31
2124.33
2315.37
2526.85
2758.53
3010.42
3282.71
3575.6
3889.56
4225.83
4585.73
4970.48
5381.51
5820.47
6289.38
6790.5
7325.95
7897.98
8509.02
9161.39
9857.1
10597.9
11385.2
12220
13102.2
14030.7
15003.3
16017.3
17069.5
18157
19276.1
20422.7
21592.3
22780.3
23982.4
25194.1
26411.4
27631
28849.4
30063
31268.9
32464.9
33649.5
34821.3
35979.6
37123.6
38252.9
39366.6
40463.6
41542.7
42603.5
43645.2
44667.3
45669.2
46649.5
47607.7
48543.2
49455
50342.2
51204.1
52039.9
52848.8
53629.8
54382.2
55105.1
55797.7
56459.2
57088.9
57686.4
58251.3
58783.1
59281.3
59745.7
60175.8
60571.2
60931.8
61257.4
61547.7
61802.6
62022
62206.1
62354.8
62468.3
62546.7
62590.4
62599.6
62574.9
62516.7
62425.7
62302.8
62148.8
61964.7
61751.5
61510.4
61242.5
60949.2
60632.2
60292.7
59932.7
59553.6
59156.6
58742.9
58313.6
57869
57409.5
56935.8
56448.3
55947.5
55433.9
54907.6
54369.1
53818.7
53256.4
52682.7
52098.2
51503.9
50900.2
50287.8
49667.3
49039.6
48405.7
47766.9
47124.5
46480.1
45834.9
45190.3
44547.1
43906
43267.5
42632.7
42002.8
41379.5
40765.9
40166.6
39587.9
39038.2
38525.7
38055.8
37669.5
37286.1
36885.5
12633.1
4324.27
4351.41
3620.19
3244.04
2995.33
2809.14
2668.25
2564.36
2488.22
2433.09
2393.37
2363.14
2337.04
2310.4
2279.41
2241.36
2194.66
2138.31
2070.68
1989.38
1894.15
1787.85
1675.25
1561.66
1452.19
1367.04
1299.74
1246.18
1210.33
1195.54
1204.43
1238.8
1299.66
1387.25
1501.23
1640.89
1805.45
1994.23
2206.82
2443.22
2703.93
2989.81
3301.98
3641.95
4011.54
4412.92
4848.43
5320.38
5831.15
6383.22
6978.91
7620.38
8309.99
9049.84
9840.61
10683.1
11578
12525.9
13528
14585.1
15697.1
16864
18083.8
19352.8
20666.2
22017.6
23400.5
24809
26237
27677.9
29125.9
30576.1
32024.7
33468.8
34905.9
36334.5
37753.1
39160.6
40555.8
41938.7
43308.9
44665.6
46008.4
47337.4
48651.1
49947.3
51224
52480.3
53714.6
54925.7
56112.7
57274.4
58409.7
59518.3
60599.3
61650.3
62669.5
63655.7
64607.6
65523.9
66403.6
67245.3
68048.1
68811.1
69533.3
70213.6
70851.5
71446.7
71999
72507.8
72972.6
73393.2
73768.9
74099.3
74384.3
74623.6
74817.3
74965.3
75068.1
75125.5
75137.6
75104.8
75027.5
74906.6
74742.9
74537.4
74291.1
74005.3
73681.6
73321.4
72926.5
72498.6
72040.4
71554
71041.6
70505.3
69947
69368.6
68771.8
68158.3
67528.8
66884.4
66226.2
65555.7
64874.1
64182.2
63480.6
62769.7
62049.7
61320.8
60583.9
59839.9
59089
58331.3
57567.1
56797.1
56022
55242.8
54460.5
53676.3
52891.3
52107
51324.8
50545.8
49770.2
48998.6
48231
47468.2
46711.6
45963.9
45229.1
44512.5
43819.5
43159.3
42535.2
41955
41450.8
40934.5
40407.5
5206.04
5613.01
4855.71
4039.5
3626.51
3339.5
3116.21
2942.13
2806.49
2698.11
2610.13
2535.9
2467.73
2399.17
2325.39
2243.26
2151.36
2049.85
1939.86
1822.84
1700.39
1574.76
1449.73
1330.07
1220.8
1126.64
1051.77
998.94
987.295
1001.24
1042.48
1112.17
1210.93
1339.03
1496.49
1683.2
1899.17
2144.75
2420.91
2729.14
3071.35
3449.84
3867.16
4321.8
4808.4
5321.09
5859.13
6433.85
7053.29
7722.45
8445.94
9227.27
10070.7
10981.4
11962.3
13013.7
14135.9
15330
16596.3
17934.6
19345.2
20828.1
22383.3
24009.4
25706
27470.2
29296.9
31181.8
33121.5
35111.1
37140.9
39197.2
41264.7
43328
45363.3
47355.5
49295.9
51180.4
53008
54777.7
56499.1
58190.6
59859.5
61508.3
63135.3
64739.6
66317.8
67867.2
69385.1
70869.5
72319.2
73733.1
75110.1
76449
77747.2
79002.3
80211.5
81372.7
82484.3
83545.1
84554
85509.6
86410.8
87256.6
88046
88778.2
89452.3
90068
90625.3
91124.1
91564.2
91945.3
92267.2
92529.9
92733.4
92877.8
92963.6
92991.2
92961.2
92874.2
92730.9
92532.3
92279.1
91972.5
91613.6
91203.8
90744.3
90236.7
89682.8
89084.7
88444.8
87765.3
87048.8
86297.7
85514.1
84700.2
83858
82989.7
82097.7
81184.1
80251.1
79300.7
78335
77356.2
76366.4
75367.9
74362.4
73351.1
72335.6
71317.4
70297.9
69278.7
68261.1
67245.5
66231.9
65220.8
64213
63209.6
62211.4
61219.7
60234.8
59257.6
58289.1
57329.9
56380.2
55440.2
54510.2
53590.5
52681.5
51784.7
50903
50040
49201.1
48389.9
47616
46878.2
46187.2
45568
44922.4
44285.4
4179.29
6942.5
5300.25
4407.55
3942.44
3603.88
3335.49
3121.31
2946.97
2802.42
2680.8
2573.02
2469.02
2361.12
2244.84
2118.51
1982.37
1838.57
1691.05
1544.14
1401.4
1266.41
1143.54
1037.64
953.355
894.74
865.008
866.436
900.412
971.047
1086.98
1238.8
1427.42
1652.75
1908.76
2187.83
2490.41
2823.76
3194.1
3612.18
4084.94
4617.52
5215.51
5884.89
6630.36
7455.31
8362.23
9352.81
10428.2
11588.5
12832.8
14159.7
15567
17051.7
18610.3
20239
21933.8
23690.6
25505.1
27373.5
29291.7
31256.5
33266.5
35321.8
37422.6
39568.2
41761.9
44007.8
46315.9
48694.3
51149.2
53685.1
56303.1
59001.7
61779.5
64621.1
67504.1
70376.4
73187.8
75892.2
78482.6
80948.7
83273.2
85467
87542.3
89531.5
91455.4
93312.6
95105.9
96835
98499.5
100099
101633
103099
104494
105817
107066
108241
109339
110363
111310
112182
112979
113699
114343
114911
115403
115819
116160
116428
116622
116745
116795
116775
116685
116526
116300
116007
115650
115229
114746
114202
113600
112941
112227
111458
110638
109767
108848
107883
106874
105824
104734
103607
102444
101247
100019
98762
97478.1
96170
94840.2
93491.4
92126.3
90747.3
89356.8
87958.2
86553.9
85146.5
83738.7
82333.7
80933.6
79540
78154.2
76778.5
75414.4
74063
72724.9
71400.6
70091.2
68798.2
67521.8
66263.9
65026.2
63808.5
62611.5
61436.1
60283.6
59155.3
58052.4
56976.6
55930.5
54915
53934.3
52989.2
52089.2
51229.2
50419.8
49685.4
48904.4
48181.6
12302.6
8413.54
5672.64
4684.25
4150.4
3750.98
3433.97
3180.22
2974.99
2807.55
2665.59
2535.08
2404.5
2265.79
2115.05
1953.3
1784.45
1613.35
1446.32
1289.27
1146.71
1023.14
923.487
853.152
817.393
819.765
862.953
940.668
1046.2
1205.05
1423.33
1704.71
2048.33
2457.02
2936.9
3494.16
4135.46
4868.44
5701.64
6643.99
7703.3
8885.27
10193.7
11631.6
13200.1
14896.5
16714.8
18647
20683.7
22814.6
25029.2
27316.3
29664.6
32063.6
34503.3
36973.9
39467.3
41977.5
44500.6
47030.7
49564.7
52105
54653.3
57218.5
59807.4
62419.5
65054.9
67717.1
70418.5
73169.7
75980.7
78864
81835.9
84918.1
88129.6
91460.8
94900.3
98403.7
101906
105353
108602
111662
114443
116899
119153
121276
123292
125204
127011
128712
130311
131809
133209
134508
135708
136810
137813
138719
139528
140245
140870
141405
141852
142213
142488
142679
142785
142810
142755
142622
142414
142132
141776
141350
140853
140288
139657
138961
138202
137383
136505
135570
134580
133537
132442
131297
130105
128865
127582
126256
124889
123483
122040
120561
119049
117505
115931
114330
112703
111053
109382
107693
105987
104268
102537
100797
99051.1
97302.3
95553.2
93806.3
92064.1
90328.7
88602
86886.7
85184.8
83497.6
81826.4
80172.3
78536.7
76919.8
75322.7
73747.6
72197
70673.1
69178.5
67714.7
66284.1
64889.2
63533.6
62220.2
60951.2
59727.1
58553.2
57429.8
56366.3
55355.3
54402.3
53545.1
52607.5
51828.3
29082.3
9322.94
5931.15
4858.31
4244.13
3781.71
3425.15
3153.15
2944.61
2778.93
2634.88
2492.86
2342.05
2178.19
2000.24
1813
1623.76
1441.14
1273.25
1124.7
1001.44
905.256
828.386
799.912
846.435
967.949
1166.34
1448.63
1826.04
2311.73
2919.46
3664.59
4564.61
5638.29
6903.05
8373.43
10059.9
11969.5
14105.4
16467.2
19050.3
21839.6
24811.7
27939.8
31197.7
34558.3
37991.6
41468.4
44964.1
48456.9
51926.2