/*--------------------------------*- C++ -*----------------------------------*\
| =========                 |                                                 |
| \\      /  F ield         | OpenFOAM: The Open Source CFD Toolbox           |
|  \\    /   O peration     | Version:  2312                                  |
|   \\  /    A nd           | Website:  www.openfoam.com                      |
|    \\/     M anipulation  |                                                 |
\*---------------------------------------------------------------------------*/
FoamFile
{
    version     2.0;
    format      ascii;
    arch        "LSB;label=32;scalar=64";
    class       volVectorField;
    location    "0.2";
    object      U;
}
// * * * * * * * * * * * * * * * * * * * * * * * * * * * * * * * * * * * * * //

dimensions      [0 1 -1 0 0 0 0];

internalField   nonuniform List<vector> 
12225
(
(9.46228 0.0398726 0)
(9.72439 0.270216 0)
(6.63595 0.396704 0)
(4.48242 0.176922 0)
(3.43129 0.0106093 0)
(2.97533 -0.0480291 0)
(2.78554 -0.0488182 0)
(2.72046 -0.0363271 0)
(2.71135 -0.0226599 0)
(2.71541 -0.0123743 0)
(2.71435 -0.00638257 0)
(2.71213 -0.00368213 0)
(2.70747 -0.002733 0)
(2.70849 -0.00302951 0)
(2.715 -0.00183877 0)
(2.70656 -0.00797333 0)
(2.77261 0.00713265 0)
(2.65815 -0.0507359 0)
(10.2034 0.130858 0)
(10.3473 0.316946 0)
(9.97836 0.618928 0)
(9.2209 0.574262 0)
(8.46986 0.370563 0)
(7.85564 0.203259 0)
(7.37569 0.104119 0)
(7.0317 0.0493066 0)
(6.79033 0.0233577 0)
(6.61755 0.012706 0)
(6.48694 0.00846922 0)
(6.38919 0.00570916 0)
(6.31127 0.00435738 0)
(6.25433 0.000231818 0)
(6.21095 0.000932801 0)
(6.17809 -0.0089491 0)
(6.16558 -0.00854653 0)
(6.14148 -0.0363238 0)
(9.9075 0.0744291 0)
(10.0418 0.317261 0)
(10.212 0.610232 0)
(10.3383 0.616093 0)
(10.2969 0.446811 0)
(10.1334 0.282868 0)
(9.89553 0.185019 0)
(9.6454 0.134322 0)
(9.40523 0.107481 0)
(9.18319 0.0901184 0)
(8.98256 0.0757676 0)
(8.80947 0.0618051 0)
(8.66372 0.0497093 0)
(8.54558 0.0374406 0)
(8.44841 0.0298147 0)
(8.36793 0.0162404 0)
(8.30886 0.00705009 0)
(8.2403 -0.0245812 0)
(9.92208 0.0714359 0)
(10.0163 0.283275 0)
(10.1781 0.53028 0)
(10.3936 0.549077 0)
(10.5551 0.422904 0)
(10.6209 0.288567 0)
(10.6098 0.208835 0)
(10.5586 0.17237 0)
(10.4904 0.156142 0)
(10.4102 0.144525 0)
(10.3239 0.131622 0)
(10.2328 0.115797 0)
(10.1463 0.100246 0)
(10.0626 0.0834852 0)
(9.9895 0.0706681 0)
(9.91531 0.0541075 0)
(9.85953 0.0387614 0)
(9.78335 0.0127642 0)
(9.99133 0.0385759 0)
(10.063 0.248926 0)
(10.2042 0.469319 0)
(10.4021 0.496844 0)
(10.5608 0.39317 0)
(10.6382 0.276634 0)
(10.6527 0.204453 0)
(10.6443 0.17253 0)
(10.6368 0.160442 0)
(10.6331 0.152624 0)
(10.6299 0.142951 0)
(10.6215 0.130099 0)
(10.6091 0.116678 0)
(10.5898 0.102072 0)
(10.5707 0.0895312 0)
(10.5462 0.073854 0)
(10.5287 0.0580673 0)
(10.4996 0.0363239 0)
(9.94658 -0.000765322 0)
(10.1002 0.211683 0)
(10.2347 0.408512 0)
(10.4125 0.450549 0)
(10.5523 0.368997 0)
(10.6129 0.268999 0)
(10.6217 0.202476 0)
(10.6167 0.170468 0)
(10.6183 0.156739 0)
(10.6279 0.147759 0)
(10.6396 0.138185 0)
(10.6481 0.126913 0)
(10.6521 0.115579 0)
(10.6513 0.103475 0)
(10.6484 0.0916577 0)
(10.6439 0.0772136 0)
(10.6404 0.0610815 0)
(10.6343 0.0415291 0)
(10.0706 -0.0218444 0)
(10.1506 0.16738 0)
(10.2448 0.353581 0)
(10.3953 0.400955 0)
(10.5256 0.342911 0)
(10.5822 0.260218 0)
(10.5934 0.200652 0)
(10.5943 0.168657 0)
(10.6004 0.152961 0)
(10.6119 0.142809 0)
(10.6234 0.133517 0)
(10.6312 0.123714 0)
(10.6348 0.113878 0)
(10.6355 0.103111 0)
(10.635 0.0914272 0)
(10.6347 0.0772658 0)
(10.6347 0.060946 0)
(10.6345 0.0426348 0)
(10.1733 -0.00500451 0)
(10.183 0.16778 0)
(10.2319 0.318207 0)
(10.3531 0.355608 0)
(10.4748 0.312814 0)
(10.5398 0.24787 0)
(10.5612 0.196163 0)
(10.5715 0.164981 0)
(10.5833 0.148166 0)
(10.5961 0.137867 0)
(10.6062 0.129696 0)
(10.6116 0.121645 0)
(10.6131 0.113142 0)
(10.6128 0.103143 0)
(10.6122 0.0912738 0)
(10.6128 0.0768573 0)
(10.614 0.0602995 0)
(10.6157 0.0425918 0)
(10.0271 -0.0213441 0)
(10.0739 0.157939 0)
(10.1575 0.279885 0)
(10.2802 0.309344 0)
(10.399 0.27837 0)
(10.4778 0.229164 0)
(10.5159 0.18594 0)
(10.5386 0.157325 0)
(10.5579 0.141072 0)
(10.5737 0.132111 0)
(10.584 0.126139 0)
(10.5885 0.120312 0)
(10.589 0.113158 0)
(10.5881 0.103559 0)
(10.5877 0.0911898 0)
(10.5887 0.0761231 0)
(10.5906 0.0591218 0)
(10.5931 0.0416091 0)
(10.0227 -0.0068585 0)
(10.0245 0.146512 0)
(10.0929 0.233349 0)
(10.2062 0.256366 0)
(10.3182 0.236911 0)
(10.4006 0.201136 0)
(10.4539 0.167458 0)
(10.4897 0.143503 0)
(10.5179 0.130221 0)
(10.5389 0.124427 0)
(10.552 0.121874 0)
(10.558 0.118864 0)
(10.5597 0.113211 0)
(10.5597 0.103855 0)
(10.5602 0.090834 0)
(10.5619 0.0749378 0)
(10.5645 0.0573841 0)
(10.5677 0.0399108 0)
(9.95281 0.0270978 0)
(9.999 0.126492 0)
(10.0728 0.189786 0)
(10.1668 0.208971 0)
(10.2558 0.1978 0)
(10.3256 0.170444 0)
(10.3816 0.142554 0)
(10.4269 0.123241 0)
(10.4632 0.114334 0)
(10.4905 0.11324 0)
(10.5084 0.115234 0)
(10.5184 0.115739 0)
(10.5232 0.111996 0)
(10.5259 0.103096 0)
(10.5283 0.0895935 0)
(10.5315 0.0729833 0)
(10.5351 0.054965 0)
(10.5392 0.037569 0)
(9.92809 0.00274097 0)
(10.0541 0.0933205 0)
(10.1 0.166989 0)
(10.1559 0.180422 0)
(10.217 0.169712 0)
(10.2721 0.144954 0)
(10.3226 0.118553 0)
(10.3685 0.101254 0)
(10.4077 0.0958111 0)
(10.4387 0.0992696 0)
(10.4608 0.105827 0)
(10.4749 0.109989 0)
(10.4836 0.108468 0)
(10.4896 0.100438 0)
(10.4946 0.0869037 0)
(10.4998 0.0699645 0)
(10.5049 0.0517608 0)
(10.5101 0.0346225 0)
(10.0257 -0.139374 0)
(10.0758 0.0573434 0)
(10.1152 0.137556 0)
(10.1456 0.154929 0)
(10.1864 0.145741 0)
(10.2319 0.121349 0)
(10.2769 0.0946377 0)
(10.3189 0.0780127 0)
(10.3565 0.0753401 0)
(10.3878 0.0828722 0)
(10.4119 0.0937575 0)
(10.429 0.101588 0)
(10.4411 0.102506 0)
(10.4503 0.0956594 0)
(10.4581 0.0824209 0)
(10.4658 0.0654465 0)
(10.4728 0.047298 0)
(10.4796 0.0306355 0)
(9.98546 -0.0292934 0)
(10.1021 0.068992 0)
(10.1357 0.144059 0)
(10.1471 0.154437 0)
(10.1753 0.133025 0)
(10.2101 0.102005 0)
(10.2446 0.0731295 0)
(10.2781 0.0561928 0)
(10.3098 0.0545522 0)
(10.3379 0.0645508 0)
(10.3611 0.0787688 0)
(10.3792 0.0898094 0)
(10.3934 0.0930327 0)
(10.4054 0.087391 0)
(10.4162 0.0745646 0)
(10.4267 0.057755 0)
(10.4363 0.0399629 0)
(10.4452 0.0242031 0)
(9.98577 -0.134303 0)
(10.0363 -0.010325 0)
(10.0881 0.0864312 0)
(10.1438 0.11232 0)
(10.1871 0.0960431 0)
(10.2106 0.0683911 0)
(10.2294 0.0416595 0)
(10.252 0.0259628 0)
(10.277 0.0264303 0)
(10.3008 0.0400303 0)
(10.3212 0.0583876 0)
(10.3383 0.0728831 0)
(10.3529 0.0782431 0)
(10.3664 0.073513 0)
(10.3794 0.060956 0)
(10.3921 0.044441 0)
(10.4037 0.0274496 0)
(10.414 0.0132142 0)
(10.2155 -0.0143785 0)
(10.1791 0.00961524 0)
(10.2252 0.0591362 0)
(10.2658 0.0915753 0)
(10.2824 0.099732 0)
(10.2856 0.0815209 0)
(10.2891 0.0488355 0)
(10.298 0.0226184 0)
(10.3083 0.0157697 0)
(10.3174 0.0266324 0)
(10.3251 0.0447387 0)
(10.3329 0.0593309 0)
(10.3417 0.0642204 0)
(10.3518 0.0585909 0)
(10.363 0.0453095 0)
(10.3746 0.0287806 0)
(10.3857 0.012738 0)
(10.3957 0.000387243 0)
(9.93104 -0.140233 0)
(9.92411 -0.0521051 0)
(9.98336 0.0178521 0)
(10.064 0.0641378 0)
(10.146 0.0783416 0)
(10.1998 0.057841 0)
(10.2284 0.0239718 0)
(10.2423 0.00173548 0)
(10.2496 0.00162746 0)
(10.2561 0.017879 0)
(10.265 0.0377626 0)
(10.277 0.0507772 0)
(10.2913 0.0524002 0)
(10.3067 0.0434415 0)
(10.3225 0.0277771 0)
(10.3383 0.0101633 0)
(10.3536 -0.00585072 0)
(10.3683 -0.0172451 0)
(9.80761 0.0193535 0)
(9.84936 -0.0375362 0)
(9.87362 -0.0903122 0)
(9.93659 -0.102606 0)
(10.0206 -0.0676854 0)
(10.0892 -0.0272721 0)
(10.1328 -0.00620583 0)
(10.1582 -0.00141723 0)
(10.1742 5.66158e-05 0)
(10.1874 0.00550462 0)
(10.2017 0.0133461 0)
(10.2181 0.0180499 0)
(10.2356 0.0154787 0)
(10.2532 0.00500886 0)
(10.2702 -0.0110398 0)
(10.2868 -0.0286407 0)
(10.3029 -0.0445474 0)
(10.3193 -0.0553563 0)
(9.96591 -0.00128053 0)
(10.0375 -0.0825513 0)
(10.0361 -0.110863 0)
(10.0047 -0.105572 0)
(9.99791 -0.100355 0)
(10.0221 -0.0932648 0)
(10.0649 -0.0811304 0)
(10.1064 -0.0651895 0)
(10.1378 -0.0475235 0)
(10.1607 -0.0306643 0)
(10.1789 -0.0178532 0)
(10.1954 -0.0121595 0)
(10.2108 -0.0151768 0)
(10.2241 -0.0262757 0)
(10.2348 -0.0431915 0)
(10.2433 -0.0624833 0)
(10.2505 -0.0813708 0)
(10.258 -0.0967562 0)
(9.8886 0.0525726 0)
(9.92406 -0.0647909 0)
(9.89061 -0.0770086 0)
(9.8981 -0.0765425 0)
(9.93918 -0.116794 0)
(9.99519 -0.153942 0)
(10.0529 -0.157433 0)
(10.1077 -0.132637 0)
(10.157 -0.0992865 0)
(10.1996 -0.0720313 0)
(10.236 -0.0551583 0)
(10.2669 -0.046891 0)
(10.2922 -0.0446653 0)
(10.3111 -0.0471373 0)
(10.3235 -0.0540527 0)
(10.3301 -0.0651087 0)
(10.3324 -0.0796664 0)
(10.3315 -0.0962806 0)
(10.0977 -0.0622127 0)
(10.0743 -0.0871043 0)
(10.0527 -0.0820996 0)
(10.0354 -0.120538 0)
(10.0355 -0.175973 0)
(10.0485 -0.215891 0)
(10.0727 -0.223965 0)
(10.1098 -0.205538 0)
(10.1552 -0.175905 0)
(10.2022 -0.146961 0)
(10.2464 -0.123446 0)
(10.2857 -0.105544 0)
(10.3191 -0.0923861 0)
(10.346 -0.0836484 0)
(10.3665 -0.0796215 0)
(10.381 -0.0804869 0)
(10.3903 -0.085902 0)
(10.3946 -0.0951332 0)
(9.94695 0.0294878 0)
(9.98063 -0.0310567 0)
(9.99785 -0.0555714 0)
(10.027 -0.097384 0)
(10.0598 -0.165304 0)
(10.083 -0.221358 0)
(10.1067 -0.245893 0)
(10.1404 -0.242163 0)
(10.1824 -0.222247 0)
(10.2277 -0.197534 0)
(10.2723 -0.174249 0)
(10.3138 -0.15388 0)
(10.3505 -0.136276 0)
(10.3813 -0.121602 0)
(10.4061 -0.110556 0)
(10.4249 -0.103908 0)
(10.4384 -0.101912 0)
(10.4468 -0.104602 0)
(9.87135 -0.0318591 0)
(9.97121 -0.0904514 0)
(10.0226 -0.11874 0)
(10.0796 -0.157386 0)
(10.1335 -0.207863 0)
(10.1697 -0.251174 0)
(10.1936 -0.274449 0)
(10.2178 -0.277785 0)
(10.2479 -0.267213 0)
(10.2841 -0.249342 0)
(10.3222 -0.227779 0)
(10.3589 -0.204487 0)
(10.3917 -0.181236 0)
(10.4194 -0.159857 0)
(10.4419 -0.14193 0)
(10.4598 -0.128665 0)
(10.474 -0.120549 0)
(10.4847 -0.117878 0)
(9.9609 -0.134544 0)
(10.0085 -0.108093 0)
(10.0463 -0.138956 0)
(10.1112 -0.203993 0)
(10.1874 -0.249378 0)
(10.2539 -0.277867 0)
(10.3068 -0.29022 0)
(10.3459 -0.291396 0)
(10.3737 -0.285423 0)
(10.3948 -0.27355 0)
(10.4132 -0.255842 0)
(10.4313 -0.232655 0)
(10.4486 -0.207123 0)
(10.4643 -0.182696 0)
(10.4786 -0.161861 0)
(10.4918 -0.1461 0)
(10.5043 -0.13581 0)
(10.5156 -0.13111 0)
(9.83538 -0.116143 0)
(9.882 -0.143173 0)
(9.94208 -0.192545 0)
(10.0268 -0.258684 0)
(10.1415 -0.314481 0)
(10.2685 -0.34259 0)
(10.3818 -0.34074 0)
(10.4614 -0.323714 0)
(10.5022 -0.30445 0)
(10.5151 -0.28567 0)
(10.5162 -0.264715 0)
(10.5149 -0.240324 0)
(10.5144 -0.214883 0)
(10.5158 -0.191357 0)
(10.5201 -0.171862 0)
(10.5271 -0.157491 0)
(10.5366 -0.14821 0)
(10.5473 -0.143806 0)
(10.2261 -0.100398 0)
(10.1294 -0.132521 0)
(10.0886 -0.215903 0)
(10.1149 -0.316165 0)
(10.2051 -0.403728 0)
(10.3412 -0.431737 0)
(10.4792 -0.404544 0)
(10.577 -0.360584 0)
(10.6241 -0.322469 0)
(10.6325 -0.29178 0)
(10.6212 -0.263643 0)
(10.6027 -0.236102 0)
(10.5843 -0.210671 0)
(10.5701 -0.18946 0)
(10.5622 -0.173547 0)
(10.5606 -0.163094 0)
(10.5639 -0.157106 0)
(10.57 -0.154769 0)
(9.94034 -0.0614809 0)
(10.0375 -0.0926727 0)
(10.0942 -0.204172 0)
(10.1552 -0.341862 0)
(10.2622 -0.46992 0)
(10.4199 -0.507995 0)
(10.5754 -0.462592 0)
(10.6772 -0.392041 0)
(10.7129 -0.33321 0)
(10.698 -0.288507 0)
(10.6557 -0.251536 0)
(10.6032 -0.220329 0)
(10.5502 -0.195498 0)
(10.5034 -0.177745 0)
(10.4634 -0.166312 0)
(10.4308 -0.160024 0)
(10.4001 -0.156626 0)
(10.3721 -0.154796 0)
(10.0118 -0.0680922 0)
(10.0615 -0.138023 0)
(10.1023 -0.232288 0)
(10.1659 -0.379892 0)
(10.29 -0.562404 0)
(10.4485 -0.609389 0)
(10.5289 -0.533108 0)
(10.498 -0.421185 0)
(10.3727 -0.327024 0)
(10.1973 -0.255109 0)
(10.011 -0.200785 0)
(9.83669 -0.162878 0)
(9.67974 -0.138979 0)
(9.54063 -0.125589 0)
(9.41317 -0.118531 0)
(9.29603 -0.114313 0)
(9.18144 -0.110095 0)
(9.07554 -0.104998 0)
(9.97365 -0.0858045 0)
(10.0876 -0.139437 0)
(10.0344 -0.248243 0)
(10.1257 -0.393221 0)
(9.90261 -0.592351 0)
(9.50932 -0.609062 0)
(9.02183 -0.491166 0)
(8.5293 -0.350658 0)
(8.05932 -0.237946 0)
(7.65909 -0.151989 0)
(7.34489 -0.0924657 0)
(7.10475 -0.056764 0)
(6.91895 -0.0383373 0)
(6.77009 -0.0294871 0)
(6.64467 -0.0252872 0)
(6.53725 -0.02274 0)
(6.44023 -0.0202748 0)
(6.35945 -0.0180512 0)
(9.85509 -0.0150077 0)
(9.70297 -0.120275 0)
(8.89277 -0.162482 0)
(8.32786 -0.351813 0)
(6.25207 -0.435014 0)
(4.66677 -0.251153 0)
(3.71588 -0.0716175 0)
(3.1559 0.0264458 0)
(2.83396 0.0591379 0)
(2.6797 0.0639233 0)
(2.62115 0.0552423 0)
(2.60224 0.0429439 0)
(2.59813 0.0310088 0)
(2.59599 0.0211227 0)
(2.58963 0.0136025 0)
(2.58005 0.00853259 0)
(2.56645 0.0052177 0)
(2.55448 0.00305632 0)
(-0.00131827 0.00406946 -3.48411e-20)
(-0.0043769 0.00445326 3.45942e-20)
(-0.0037997 0.00078215 0)
(0.00411469 -0.00519093 0)
(0.0187687 -0.0111122 0)
(0.0379893 -0.0155303 -3.35746e-20)
(0.059524 -0.0181583 0)
(0.0816884 -0.0192254 0)
(0.103415 -0.0191267 0)
(0.123944 -0.0182262 0)
(0.142805 -0.016804 3.23092e-20)
(0.159752 -0.0150613 0)
(0.174685 -0.0131562 0)
(0.187593 -0.011209 0)
(0.198532 -0.0093033 0)
(0.207609 -0.00750474 3.10661e-20)
(0.214967 -0.00585862 0)
(0.220771 -0.00439868 0)
(0.225201 -0.00314728 0)
(0.228447 -0.00212256 0)
(0.230716 -0.00133624 0)
(0.232218 -0.000786728 0)
(0.233157 -0.000470025 0)
(0.233736 -0.000390517 2.9117e-20)
(0.234151 -0.000543258 -2.88765e-20)
(0.234596 -0.000908505 2.86367e-20)
(0.235235 -0.00145273 2.83975e-20)
(0.236202 -0.00212974 0)
(0.237592 -0.00289087 0)
(0.239459 -0.00368924 -2.76843e-20)
(0.241824 -0.00447902 -2.7448e-20)
(0.244674 -0.0052174 0)
(0.247964 -0.00586586 0)
(0.251627 -0.00639869 -2.67442e-20)
(0.255576 -0.00680402 0)
(0.259713 -0.00707455 0)
(0.263947 -0.00722147 2.60489e-20)
(0.268187 -0.00727181 0)
(0.27235 -0.00725765 2.55906e-20)
(0.276364 -0.00720802 5.07262e-20)
(0.28017 -0.00714375 0)
(0.283715 -0.00707773 0)
(0.28695 -0.00700734 0)
(0.28982 -0.00695506 0)
(0.29229 -0.00700717 0)
(0.294286 -0.00732637 4.80462e-20)
(0.295767 -0.00830599 4.76084e-20)
(0.296455 -0.0102354 4.71734e-20)
(0.295946 -0.0140276 0)
(0.294018 -0.0202669 -4.63123e-20)
(0.290029 -0.0277728 0)
(0.282715 -0.0342237 4.54617e-20)
(0.269656 -0.03642 4.50403e-20)
(0.24764 -0.0308694 0)
(0.213475 -0.0157893 0)
(0.163449 0.00860438 0)
(0.0956005 0.0369072 4.33775e-20)
(0.0144294 0.054629 0)
(-0.0694832 0.0533593 0)
(-0.147796 0.0470358 0)
(-0.222 0.0422271 0)
(-0.292086 0.0382035 0)
(-0.358262 0.034705 0)
(-0.420643 0.0316258 0)
(-0.479447 0.0289092 0)
(-0.534879 0.0265225 -3.96707e-20)
(-0.587118 0.0244161 0)
(-0.636344 0.022542 0)
(-0.682735 0.0208632 3.84813e-20)
(-0.726456 0.0193492 3.80891e-20)
(-0.767665 0.0179761 0)
(-0.806507 0.0167231 -3.73106e-20)
(-0.843124 0.0155714 3.69241e-20)
(-0.877652 0.0145059 0)
(-0.910197 0.0135197 -3.61565e-20)
(-0.940891 0.0126175 0)
(-0.969858 0.011799 0)
(-0.99722 0.0110606 3.50187e-20)
(-1.0231 0.0103997 0)
(-1.04761 0.00981225 -3.42695e-20)
(-1.07088 0.00929454 0)
(-1.093 0.00884222 3.35279e-20)
(-1.11408 0.00845065 3.31602e-20)
(-1.13421 0.00811475 3.27944e-20)
(-1.15348 0.00782906 6.48614e-20)
(-1.17196 0.00758802 -6.41382e-20)
(-1.18972 0.00738539 0)
(-1.20681 0.00721343 0)
(-1.22328 0.00706448 0)
(-1.23914 0.00693205 -6.12867e-20)
(-1.25442 0.00680998 -6.0584e-20)
(-1.26912 0.00669292 5.98853e-20)
(-1.28325 0.00657651 0)
(-1.29678 0.00645723 -5.84994e-20)
(-1.3097 0.00633255 -5.7812e-20)
(-1.322 0.00620078 -5.71283e-20)
(-1.33365 0.00606117 0)
(-1.34462 0.00591372 0)
(-1.35489 0.00575898 0)
(-1.36445 0.00559762 -5.44275e-20)
(-1.37327 0.00543177 0)
(-1.38135 0.00526676 0)
(-1.38868 0.0051079 5.24361e-20)
(-1.39527 0.00495646 0)
(-1.40114 0.0048121 0)
(-1.40629 0.00467564 5.04737e-20)
(-1.41076 0.00455102 0)
(-1.41455 0.00443943 0)
(-1.41771 0.00433807 -4.85415e-20)
(-1.42025 0.00424027 -4.79045e-20)
(-1.42217 0.0041412 0)
(-1.42351 0.00404471 4.66415e-20)
(-1.42424 0.00397011 0)
(-1.42439 0.00392676 -4.53935e-20)
(-1.42399 0.00389173 0)
(-1.423 0.00384302 -4.41606e-20)
(-1.42138 0.0037776 -4.35497e-20)
(-1.41907 0.0036863 0)
(-1.416 0.00356243 0)
(-1.41209 0.00339975 0)
(-1.40724 0.00319272 0)
(-1.40136 0.00293696 0)
(-1.39433 0.00262978 0)
(-1.38604 0.00227058 0)
(-1.3764 0.0018611 -3.87831e-20)
(-1.36531 0.00140556 3.82006e-20)
(-1.35269 0.000912478 0)
(-1.33849 0.000392545 0)
(-1.32267 -0.000144548 0)
(-1.3052 -0.000688513 0)
(-1.28612 -0.00122779 7.06572e-20)
(-1.26546 -0.00175224 0)
(-1.2433 -0.00225355 -6.84001e-20)
(-1.21973 -0.002721 6.72815e-20)
(-1.19488 -0.0031449 0)
(-1.1689 -0.00351818 0)
(-1.14194 -0.00383627 0)
(-1.11419 -0.00409691 -6.28851e-20)
(-1.08581 -0.00429968 -6.1808e-20)
(-1.05697 -0.0044469 0)
(-1.02784 -0.00454362 -5.96833e-20)
(-0.998546 -0.00459676 -5.86363e-20)
(-0.969212 -0.00461485 5.75997e-20)
(-0.939924 -0.00460731 0)
(-0.91074 -0.00458401 0)
(-0.881688 -0.00455476 5.45528e-20)
(-0.852765 -0.00452891 0)
(-0.82394 -0.00451498 0)
(-0.795153 -0.00452044 0)
(-0.766327 -0.00455159 0)
(-0.737361 -0.00461319 -4.9671e-20)
(-0.708144 -0.00470829 -4.87207e-20)
(-0.678555 -0.004838 0)
(-0.648474 -0.00500168 -4.68425e-20)
(-0.617784 -0.00519691 0)
(-0.586378 -0.00541962 0)
(-0.554164 -0.00566428 -4.40751e-20)
(-0.521073 -0.00592398 0)
(-0.48706 -0.00619061 -4.22598e-20)
(-0.452109 -0.00645542 0)
(-0.416235 -0.00671006 0)
(-0.379486 -0.00694494 -3.95792e-20)
(-0.341941 -0.00715258 0)
(-0.303695 -0.00733213 -3.78214e-20)
(-0.264865 -0.00747395 0)
(-0.225596 -0.00756947 0)
(-0.186022 -0.00762938 0)
(-0.146265 -0.00765958 3.43843e-20)
(-0.106453 -0.00765042 0)
(-0.0667113 -0.0076066 -3.27088e-20)
(-0.0271053 -0.00751319 0)
(0.0121885 -0.00731797 0)
(0.0508746 -0.00697627 0)
(0.0886373 -0.00659141 0)
(0.125589 -0.00618242 0)
(0.160603 -0.00572141 0)
(0.196797 -0.00479848 0)
(0.220653 -0.00468652 5.25932e-20)
(0.266066 -0.000857287 0)
(0.24491 0.00268425 0)
(-0.000893107 0.00776778 1.04547e-19)
(0.00111927 0.00105388 -1.03805e-19)
(0.0130356 -0.0187098 0)
(0.033563 -0.0414824 6.8178e-20)
(0.0583124 -0.0588619 0)
(0.0835141 -0.0684555 3.35595e-20)
(0.1072 -0.0715292 -6.66145e-20)
(0.12863 -0.0701342 -6.60931e-20)
(0.147641 -0.0660143 0)
(0.164317 -0.0603852 -6.50594e-20)
(0.178825 -0.0540317 -3.22659e-20)
(0.191358 -0.0474493 0)
(0.202099 -0.0409502 0)
(0.211201 -0.0347358 0)
(0.21882 -0.0289354 0)
(0.225088 -0.0236334 -3.10198e-20)
(0.230133 -0.0188717 0)
(0.234077 -0.0146746 6.10762e-20)
(0.237032 -0.0110551 0)
(0.239115 -0.00801485 0)
(0.240433 -0.00554647 -5.96209e-20)
(0.241096 -0.00363371 0)
(0.241201 -0.00225703 5.86564e-20)
(0.240832 -0.00138675 -2.90824e-20)
(0.240066 -0.000978919 2.88426e-20)
(0.238962 -0.000975355 -2.8603e-20)
(0.237561 -0.00129906 -2.83638e-20)
(0.235886 -0.00186095 0)
(0.233942 -0.00256908 0)
(0.231718 -0.0033423 2.76483e-20)
(0.229185 -0.00411586 -2.74185e-20)
(0.226313 -0.00483862 0)
(0.223065 -0.00546913 0)
(0.219397 -0.00596901 2.67033e-20)
(0.215254 -0.00630314 0)
(0.210545 -0.0064406 0)
(0.205146 -0.00636924 -2.60059e-20)
(0.198903 -0.00609988 0)
(0.19163 -0.00565193 2.55522e-20)
(0.183091 -0.0050407 -5.06417e-20)
(0.172989 -0.00427256 0)
(0.160968 -0.00335223 0)
(0.146569 -0.0023054 -9.85977e-20)
(0.129185 -0.00116211 -9.7711e-20)
(0.108066 0.000121287 -9.68304e-20)
(0.0823074 0.00181918 4.79798e-20)
(0.0509625 0.00475151 -4.75449e-20)
(0.0124808 0.0101704 -1.41351e-19)
(-0.0342412 0.0183313 9.33774e-20)
(-0.0906786 0.0294736 4.62593e-20)
(-0.158287 0.0445874 0)
(-0.23644 0.0641766 -4.53997e-20)
(-0.322692 0.0869787 4.49683e-20)
(-0.413579 0.110416 0)
(-0.50404 0.132134 0)
(-0.589464 0.149772 0)
(-0.66814 0.160883 -4.32388e-20)
(-0.743375 0.164116 0)
(-0.818455 0.1607 8.47682e-20)
(-0.892796 0.154478 0)
(-0.965958 0.147038 8.30835e-20)
(-1.03701 0.139067 0)
(-1.10545 0.131024 -8.14295e-20)
(-1.17098 0.123136 0)
(-1.23348 0.115531 7.98016e-20)
(-1.29294 0.108276 -3.95015e-20)
(-1.34938 0.101404 0)
(-1.40286 0.0949199 -7.74007e-20)
(-1.45346 0.0888196 -3.83024e-20)
(-1.50128 0.0830899 -3.79094e-20)
(-1.5464 0.0777138 0)
(-1.58895 0.0726735 -3.71331e-20)
(-1.62903 0.0679561 -3.67423e-20)
(-1.66676 0.063562 0)
(-1.70228 0.0594744 3.59738e-20)
(-1.73571 0.0556676 -7.11869e-20)
(-1.76714 0.0521368 0)
(-1.79671 0.0488723 -3.48357e-20)
(-1.82452 0.0458623 0)
(-1.85067 0.0430949 1.02261e-19)
(-1.87527 0.0405559 0)
(-1.89842 0.0382299 -1.00038e-19)
(-1.92021 0.0360994 -3.2979e-20)
(-1.94073 0.0341458 3.26135e-20)
(-1.96005 0.0323493 6.45008e-20)
(-1.97822 0.0306875 -6.37791e-20)
(-1.99531 0.0291383 0)
(-2.01135 0.0276827 0)
(-2.02637 0.0263008 0)
(-2.04039 0.0249722 1.82809e-19)
(-2.05341 0.0236792 6.0236e-20)
(-2.06544 0.0224057 -5.95395e-20)
(-2.07646 0.0211391 0)
(-2.08645 0.0198692 -5.81592e-20)
(-2.0954 0.0185893 5.74736e-20)
(-2.10327 0.0172951 5.67924e-20)
(-2.11004 0.0159853 0)
(-2.11568 0.0146606 0)
(-2.12017 0.0133245 0)
(-2.12348 0.0119825 5.41025e-20)
(-2.12561 0.0106443 0)
(-2.12653 0.00932081 -1.05559e-19)
(-2.12625 0.00801954 -1.56364e-19)
(-2.12476 0.00674445 1.02936e-19)
(-2.12208 0.00551169 0)
(-2.11822 0.00433219 5.01716e-20)
(-2.11324 0.00320585 0)
(-2.10714 0.0021301 9.77669e-20)
(-2.09996 0.00110453 -4.82487e-20)
(-2.09174 0.000126021 -4.76149e-20)
(-2.0825 -0.000812979 0)
(-2.07227 -0.00172343 -1.39064e-19)
(-2.06105 -0.00261528 9.14663e-20)
(-2.04882 -0.00349856 4.51112e-20)
(-2.03554 -0.00438841 0)
(-2.02118 -0.00530458 4.38848e-20)
(-2.00572 -0.00626384 1.29839e-19)
(-1.98909 -0.00728184 0)
(-1.97123 -0.0083714 8.4154e-20)
(-1.95208 -0.00954322 8.29603e-20)
(-1.93155 -0.0108045 8.17732e-20)
(-1.90958 -0.0121587 0)
(-1.88607 -0.0136042 0)
(-1.86096 -0.0151346 0)
(-1.83417 -0.0167382 -3.85493e-20)
(-1.80565 -0.0183982 -3.79567e-20)
(-1.77537 -0.0200933 0)
(-1.74329 -0.0217971 -7.36277e-20)
(-1.70944 -0.0234808 -7.24859e-20)
(-1.67384 -0.0251156 0)
(-1.63656 -0.0266705 -7.0203e-20)
(-1.59767 -0.0281188 -1.38189e-19)
(-1.55729 -0.0294359 6.79601e-20)
(-1.51556 -0.0305954 6.68803e-20)
(-1.47263 -0.0315772 0)
(-1.42869 -0.0323687 0)
(-1.38391 -0.0329637 0)
(-1.3385 -0.0333626 6.24815e-20)
(-1.29264 -0.0335726 -6.144e-20)
(-1.24651 -0.0336082 -1.20731e-19)
(-1.20028 -0.0334904 5.93016e-20)
(-1.15408 -0.0332454 -5.82875e-20)
(-1.10804 -0.0329029 -5.72323e-20)
(-1.06223 -0.0324942 0)
(-1.01672 -0.0320509 0)
(-0.971507 -0.0316034 5.42296e-20)
(-0.926597 -0.0311796 0)
(-0.881948 -0.0308041 0)
(-0.837495 -0.0304977 -1.02561e-19)
(-0.793152 -0.0302771 0)
(-0.748817 -0.0301539 -4.93795e-20)
(-0.704375 -0.0301346 4.84123e-20)
(-0.659705 -0.0302196 0)
(-0.614688 -0.0304043 -4.65701e-20)
(-0.569208 -0.0306789 0)
(-0.523164 -0.0310291 0)
(-0.476472 -0.0314365 4.37971e-20)
(-0.429067 -0.0318797 -8.581e-20)
(-0.380913 -0.0323336 4.1994e-20)
(-0.332008 -0.0327722 0)
(-0.282373 -0.0331729 0)
(-0.232066 -0.033506 -3.93555e-20)
(-0.18118 -0.0337513 0)
(-0.129816 -0.033911 -3.76088e-20)
(-0.0780981 -0.0339456 0)
(-0.0261776 -0.0338718 0)
(0.0258094 -0.0336915 0)
(0.0777386 -0.0334125 -3.41673e-20)
(0.129494 -0.0330405 0)
(0.180968 -0.0325833 3.24977e-20)
(0.232076 -0.0320527 0)
(0.28272 -0.0314393 0)
(0.332846 -0.0306789 -6.01218e-20)
(0.382431 -0.0297915 5.85229e-20)
(0.431527 -0.0287613 0)
(0.479349 -0.0275971 0)
(0.527583 -0.0254885 0)
(0.568434 -0.0238943 -1.5684e-19)
(0.620766 -0.017169 0)
(0.632383 -0.00562533 9.85873e-20)
(-0.00108362 0.00379431 3.09863e-23)
(0.00912227 -0.0245907 1.3844e-19)
(0.0337122 -0.0666446 0)
(0.0613616 -0.0993197 -1.36348e-19)
(0.0863514 -0.114677 0)
(0.10646 -0.116379 0)
(0.122236 -0.110501 -2.95103e-23)
(0.134809 -0.101293 6.59847e-20)
(0.145044 -0.0909826 6.54671e-20)
(0.153514 -0.0805761 6.48983e-20)
(0.160591 -0.0704999 0)
(0.166519 -0.0609385 0)
(0.171457 -0.0519746 -6.33551e-20)
(0.175506 -0.0436519 -1.25697e-19)
(0.178742 -0.0360114 1.24697e-19)
(0.181209 -0.0290665 0)
(0.182945 -0.0228133 1.22729e-19)
(0.183988 -0.0172657 -6.08564e-20)
(0.184369 -0.0124294 0)
(0.18412 -0.0082963 1.1983e-19)
(0.18327 -0.00484697 5.94149e-20)
(0.181841 -0.00205395 -1.17912e-19)
(0.179868 0.00011798 -5.84587e-20)
(0.177374 0.00171912 0)
(0.174359 0.00281738 1.1504e-19)
(0.170806 0.00349986 1.14083e-19)
(0.166688 0.00387175 0)
(0.161961 0.00405006 1.12169e-19)
(0.156566 0.00415078 0)
(0.150427 0.00427311 1.1026e-19)
(0.14345 0.00449522 5.4643e-20)
(0.135524 0.00488056 0)
(0.126516 0.00549068 0)
(0.116262 0.00639019 0)
(0.104565 0.00765108 0)
(0.0911696 0.00934852 0)
(0.0757621 0.0115557 0)
(0.0579592 0.014343 1.02837e-19)
(0.0372976 0.0178103 -1.52902e-19)
(0.0132378 0.0220999 0)
(-0.0148508 0.0274027 0)
(-0.0476875 0.0339648 0)
(-0.0860402 0.0420654 -8.39795e-24)
(-0.130703 0.0520182 9.74747e-20)
(-0.182412 0.0642091 1.93187e-19)
(-0.241623 0.078977 -1.91424e-19)
(-0.308484 0.0963765 -9.48356e-20)
(-0.382219 0.116198 9.39539e-20)
(-0.461521 0.137222 4.49286e-24)
(-0.544484 0.157707 9.22083e-20)
(-0.628278 0.176896 0)
(-0.711186 0.194294 9.04539e-20)
(-0.791834 0.209629 5.42754e-24)
(-0.868927 0.223262 0)
(-0.941341 0.235366 0)
(-1.00844 0.245203 -8.69463e-20)
(-1.07045 0.251151 0)
(-1.12865 0.251628 0)
(-1.1849 0.246794 8.43519e-20)
(-1.24019 0.238593 1.6696e-19)
(-1.29469 0.228499 -8.26144e-20)
(-1.34818 0.217444 0)
(-1.40042 0.20603 8.09368e-20)
(-1.45114 0.194618 0)
(-1.50015 0.183423 7.93111e-20)
(-1.54731 0.172569 7.84705e-20)
(-1.59252 0.162133 -1.55342e-19)
(-1.6357 0.152155 -7.68746e-20)
(-1.67686 0.14265 0)
(-1.71596 0.133627 1.50538e-19)
(-1.75305 0.125082 0)
(-1.78813 0.117009 2.21071e-19)
(-1.82126 0.1094 1.45823e-19)
(-1.85249 0.102244 1.4427e-19)
(-1.88188 0.0955297 -1.42725e-19)
(-1.90949 0.0892473 2.11782e-19)
(-1.93541 0.0833853 0)
(-1.9597 0.0779312 0)
(-1.98245 0.0728702 -1.36637e-19)
(-2.00375 0.0681851 -2.02705e-19)
(-2.02367 0.0638554 0)
(-2.04228 0.0598572 6.60828e-20)
(-2.05967 0.0561634 0)
(-2.0759 0.0527441 -1.93848e-19)
(-2.09102 0.049567 -1.66725e-24)
(-2.10508 0.0465986 1.87741e-24)
(-2.11812 0.0438051 1.24901e-19)
(-2.13016 0.0411534 0)
(-2.14123 0.0386111 -1.22062e-19)
(-2.15133 0.0361476 -1.15736e-24)
(-2.16045 0.0337348 0)
(-2.16859 0.0313482 0)
(-2.17571 0.0289679 0)
(-2.1818 0.0265789 1.15119e-19)
(-2.18683 0.0241713 0)
(-2.19077 0.0217401 0)
(-2.19358 0.0192851 0)
(-2.19523 0.0168103 0)
(-2.1957 0.0143238 0)
(-2.19496 0.0118379 1.07053e-19)
(-2.19299 0.00936733 0)
(-2.18978 0.00691558 1.04414e-19)
(-2.18534 0.00449771 1.03107e-19)
(-2.17968 0.00213772 -1.01807e-19)
(-2.17281 -0.000145578 0)
(-2.16475 -0.00233852 -9.92269e-20)
(-2.15551 -0.00443667 0)
(-2.14513 -0.00643943 -9.66752e-20)
(-2.13362 -0.00834871 9.54101e-20)
(-2.12103 -0.0101717 2.82475e-19)
(-2.10737 -0.0119213 0)
(-2.09266 -0.013616 2.75e-19)
(-2.07691 -0.0152773 9.04454e-20)
(-2.06012 -0.0169263 0)
(-2.04227 -0.0185865 1.75982e-19)
(-2.02333 -0.0202836 1.73561e-19)
(-2.00327 -0.0220424 -2.5672e-19)
(-1.98203 -0.0238855 0)
(-1.95957 -0.025832 -8.31797e-20)
(-1.93581 -0.0278966 -8.19974e-20)
(-1.91068 -0.0300888 -2.42497e-19)
(-1.88411 -0.0324114 0)
(-1.85602 -0.0348596 0)
(-1.82635 -0.0374203 0)
(-1.79503 -0.0400725 -7.62224e-20)
(-1.76202 -0.0427876 0)
(-1.72727 -0.0455312 0)
(-1.69078 -0.0482629 7.27645e-20)
(-1.65255 -0.0509392 7.16364e-20)
(-1.61262 -0.0535137 0)
(-1.57105 -0.0559381 0)
(-1.52794 -0.0581675 1.36575e-19)
(-1.48338 -0.0601622 0)
(-1.43754 -0.061883 -1.32174e-19)
(-1.39057 -0.0632991 -1.30039e-19)
(-1.34264 -0.0643922 0)
(-1.29396 -0.0651545 0)
(-1.24471 -0.0655894 1.23596e-19)
(-1.19508 -0.0657116 -3.86641e-23)
(-1.14526 -0.0655473 -3.72638e-23)
(-1.09542 -0.0651329 0)
(-1.04568 -0.0645128 2.30494e-19)
(-0.99617 -0.063737 0)
(-0.946969 -0.0628576 0)
(-0.898127 -0.0619272 0)
(-0.849662 -0.0609957 -1.07226e-19)
(-0.801562 -0.060109 0)
(-0.753785 -0.0593068 2.06746e-19)
(-0.706267 -0.0586228 1.01429e-19)
(-0.65892 -0.0580835 0)
(-0.611641 -0.0577081 9.76529e-20)
(-0.564313 -0.057506 0)
(-0.516814 -0.0574775 0)
(-0.469024 -0.0576143 2.7638e-19)
(-0.420826 -0.0579003 -1.80632e-19)
(-0.372117 -0.0583114 0)
(-0.322809 -0.0588175 -1.73422e-19)
(-0.272836 -0.0593826 8.48933e-20)
(-0.22216 -0.0599661 0)
(-0.170774 -0.0605248 0)
(-0.118697 -0.0610212 0)
(-0.0659856 -0.0614086 2.3365e-19)
(-0.0127362 -0.0616584 0)
(0.0409618 -0.0617446 7.44094e-20)
(0.0949815 -0.0616523 0)
(0.149167 -0.0613788 0)
(0.203393 -0.0609325 0)
(0.257536 -0.0603325 0)
(0.311489 -0.0595936 0)
(0.365175 -0.0587319 0)
(0.418539 -0.0577608 1.25476e-19)
(0.47157 -0.0566851 0)
(0.524303 -0.0554914 5.95083e-20)
(0.576729 -0.0541814 -1.73834e-19)
(0.628873 -0.0526847 0)
(0.680192 -0.0509037 0)
(0.731743 -0.048161 1.0661e-19)
(0.77881 -0.0450101 1.03545e-19)
(0.832648 -0.0373324 -1.00572e-19)
(0.862974 -0.0225764 -9.76582e-20)
(-0.00086116 -0.00908184 -2.09288e-19)
(0.0191632 -0.0732147 -2.07771e-19)
(0.0492467 -0.129026 -1.37487e-19)
(0.0728463 -0.152588 -6.82465e-20)
(0.088754 -0.152576 0)
(0.0993441 -0.14252 1.34153e-19)
(0.107093 -0.129512 -6.65399e-20)
(0.113219 -0.1161 0)
(0.118257 -0.103065 -6.53129e-20)
(0.122445 -0.0906337 0)
(0.125897 -0.0788762 1.28492e-19)
(0.128667 -0.0678187 0)
(0.130784 -0.0574718 6.31512e-20)
(0.132268 -0.0478435 1.25278e-19)
(0.133131 -0.0389471 -1.24271e-19)
(0.13338 -0.0307852 0)
(0.133021 -0.0233543 -1.22297e-19)
(0.132054 -0.0166628 0)
(0.13048 -0.0107151 0)
(0.128297 -0.00550017 -1.19406e-19)
(0.125491 -0.000997332 0)
(0.122039 0.00283211 -5.37248e-23)
(0.117914 0.00604114 0)
(0.113081 0.00869782 0)
(0.10749 0.010891 4.74607e-23)
(0.101073 0.0127328 -1.13705e-19)
(0.093742 0.0143524 -1.12802e-19)
(0.0853888 0.0158907 -1.11815e-19)
(0.0758832 0.0174878 0)
(0.0650691 0.0192733 -2.19912e-19)
(0.0527573 0.0213636 0)
(0.03872 0.0238638 -1.08114e-19)
(0.0226891 0.0268901 0)
(0.00435689 0.0305928 0)
(-0.0166405 0.0351485 1.05358e-19)
(-0.0407251 0.0407549 0)
(-0.0683715 0.0476225 -1.03534e-19)
(-0.100109 0.0559427 2.07935e-23)
(-0.136479 0.0659004 2.03436e-19)
(-0.177989 0.0776806 -2.01658e-19)
(-0.225068 0.091423 0)
(-0.277974 0.107263 0)
(-0.336646 0.125315 -9.81545e-20)
(-0.40076 0.145507 0)
(-0.469633 0.16727 -9.63422e-20)
(-0.54215 0.189583 9.54498e-20)
(-0.616713 0.211537 9.4555e-20)
(-0.691319 0.232488 0)
(-0.764657 0.251797 -9.27553e-20)