/*--------------------------------*- C++ -*----------------------------------*\
| =========                 |                                                 |
| \\      /  F ield         | OpenFOAM: The Open Source CFD Toolbox           |
|  \\    /   O peration     | Version:  2312                                  |
|   \\  /    A nd           | Website:  www.openfoam.com                      |
|    \\/     M anipulation  |                                                 |
\*---------------------------------------------------------------------------*/
FoamFile
{
    version     2.0;
    format      ascii;
    arch        "LSB;label=32;scalar=64";
    class       volVectorField;
    location    "0.2";
    object      U_0;
}
// * * * * * * * * * * * * * * * * * * * * * * * * * * * * * * * * * * * * * //

dimensions      [0 1 -1 0 0 0 0];

internalField   nonuniform List<vector> 
12225
(
(9.44802 0.0308976 0)
(9.71508 0.270047 0)
(6.62411 0.397068 0)
(4.4737 0.176697 0)
(3.42504 0.0104368 0)
(2.97044 -0.048168 0)
(2.78149 -0.0489341 0)
(2.71695 -0.0364031 0)
(2.70834 -0.0226923 0)
(2.71283 -0.0124181 0)
(2.71218 -0.00646075 0)
(2.71035 -0.00374743 0)
(2.70603 -0.00277124 0)
(2.70729 -0.00301976 0)
(2.71391 -0.00186169 0)
(2.70536 -0.00793274 0)
(2.77181 0.00710741 0)
(2.65873 -0.0514487 0)
(10.205 0.136183 0)
(10.3251 0.315775 0)
(9.96077 0.618264 0)
(9.21034 0.573074 0)
(8.46389 0.369805 0)
(7.85192 0.202885 0)
(7.37255 0.103871 0)
(7.02843 0.0491002 0)
(6.787 0.0231941 0)
(6.61441 0.0125338 0)
(6.48421 0.00826149 0)
(6.38697 0.00551039 0)
(6.30961 0.00418169 0)
(6.25314 0.000121019 0)
(6.21009 0.000907687 0)
(6.17714 -0.00892262 0)
(6.16496 -0.00824233 0)
(6.1414 -0.0360258 0)
(9.9132 0.0758282 0)
(10.03 0.319733 0)
(10.1977 0.608158 0)
(10.3268 0.61296 0)
(10.2907 0.444836 0)
(10.131 0.282038 0)
(9.89414 0.184795 0)
(9.64347 0.134329 0)
(9.40243 0.107442 0)
(9.17995 0.0898927 0)
(8.9795 0.0753739 0)
(8.807 0.061351 0)
(8.66199 0.0493094 0)
(8.54441 0.0371571 0)
(8.44762 0.0297375 0)
(8.36739 0.0163285 0)
(8.30833 0.00750465 0)
(8.24011 -0.0244893 0)
(9.91828 0.0771099 0)
(10.0069 0.286357 0)
(10.1665 0.528806 0)
(10.3826 0.545382 0)
(10.548 0.419659 0)
(10.6174 0.286824 0)
(10.6079 0.208408 0)
(10.5567 0.172617 0)
(10.4881 0.156422 0)
(10.4075 0.144468 0)
(10.3213 0.131186 0)
(10.2304 0.115136 0)
(10.1444 0.0995646 0)
(10.0611 0.082941 0)
(9.9882 0.0703907 0)
(9.91431 0.0540301 0)
(9.85868 0.0388865 0)
(9.78282 0.0129678 0)
(9.98995 0.0507103 0)
(10.0539 0.252181 0)
(10.1941 0.467852 0)
(10.3929 0.492492 0)
(10.5536 0.389056 0)
(10.6329 0.27429 0)
(10.6486 0.203746 0)
(10.641 0.17266 0)
(10.6343 0.160659 0)
(10.6311 0.152514 0)
(10.6281 0.142466 0)
(10.6196 0.129403 0)
(10.6071 0.115986 0)
(10.5877 0.101529 0)
(10.5686 0.0891939 0)
(10.5443 0.0736697 0)
(10.5272 0.0579938 0)
(10.4986 0.0362495 0)
(9.94899 0.0243497 0)
(10.0908 0.215236 0)
(10.225 0.406756 0)
(10.4043 0.44582 0)
(10.5451 0.364501 0)
(10.6067 0.266285 0)
(10.6165 0.201347 0)
(10.6128 0.170164 0)
(10.6155 0.156598 0)
(10.6257 0.147437 0)
(10.6377 0.137648 0)
(10.6461 0.126292 0)
(10.6499 0.115016 0)
(10.649 0.103023 0)
(10.6462 0.0913048 0)
(10.6419 0.0768924 0)
(10.6388 0.060735 0)
(10.6332 0.0411338 0)
(10.0537 -0.0177146 0)
(10.134 0.170175 0)
(10.2336 0.351472 0)
(10.3874 0.395883 0)
(10.5186 0.338171 0)
(10.5757 0.257151 0)
(10.5882 0.199037 0)
(10.5905 0.167872 0)
(10.5977 0.15247 0)
(10.6097 0.14232 0)
(10.6213 0.13297 0)
(10.6289 0.123163 0)
(10.6324 0.113375 0)
(10.6331 0.102649 0)
(10.6327 0.0909625 0)
(10.6328 0.07674 0)
(10.6332 0.0603253 0)
(10.6335 0.0419491 0)
(10.1666 -0.00672611 0)
(10.1644 0.167383 0)
(10.2206 0.314373 0)
(10.3457 0.349717 0)
(10.4685 0.307787 0)
(10.534 0.244442 0)
(10.5567 0.194066 0)
(10.5683 0.163733 0)
(10.5809 0.147384 0)
(10.5939 0.137287 0)
(10.6039 0.129189 0)
(10.6091 0.121164 0)
(10.6105 0.112656 0)
(10.6102 0.102606 0)
(10.61 0.0906357 0)
(10.611 0.0760895 0)
(10.6126 0.0594102 0)
(10.6146 0.041655 0)
(10.0036 -0.0359224 0)
(10.0521 0.152782 0)
(10.1469 0.273934 0)
(10.2738 0.30268 0)
(10.3939 0.273014 0)
(10.4734 0.225399 0)
(10.5125 0.183382 0)
(10.5361 0.155685 0)
(10.5559 0.140099 0)
(10.5717 0.13154 0)
(10.5817 0.125741 0)
(10.586 0.119924 0)
(10.5864 0.112672 0)
(10.5857 0.102901 0)
(10.5855 0.0903339 0)
(10.5869 0.075087 0)
(10.5892 0.0579658 0)
(10.5921 0.040446 0)
(10.0119 -0.027717 0)
(10.0084 0.137666 0)
(10.083 0.224845 0)
(10.2006 0.248774 0)
(10.3143 0.231135 0)
(10.3975 0.197026 0)
(10.4516 0.164557 0)
(10.488 0.141626 0)
(10.5164 0.129193 0)
(10.5373 0.123975 0)
(10.55 0.121659 0)
(10.5557 0.118599 0)
(10.5572 0.112717 0)
(10.5574 0.103055 0)
(10.5581 0.0897404 0)
(10.5603 0.0736286 0)
(10.5632 0.0559756 0)
(10.5667 0.0385488 0)
(9.93779 0.011359 0)
(9.98424 0.111613 0)
(10.0643 0.178806 0)
(10.1616 0.200374 0)
(10.252 0.191538 0)
(10.3228 0.165884 0)
(10.3799 0.139303 0)
(10.4258 0.12118 0)
(10.4622 0.113346 0)
(10.4893 0.11299 0)
(10.5068 0.115253 0)
(10.5164 0.115624 0)
(10.5211 0.111506 0)
(10.5239 0.102161 0)
(10.5265 0.0882762 0)
(10.5301 0.0714248 0)
(10.534 0.0533368 0)
(10.5382 0.0360453 0)
(9.94252 -0.0489302 0)
(10.0469 0.0796427 0)
(10.093 0.155729 0)
(10.1506 0.171071 0)
(10.2129 0.162858 0)
(10.2693 0.139817 0)
(10.321 0.114835 0)
(10.3677 0.0989806 0)
(10.4071 0.0948562 0)
(10.4379 0.0992018 0)
(10.4595 0.10606 0)
(10.4734 0.110016 0)
(10.4819 0.107998 0)
(10.4879 0.099406 0)
(10.4931 0.0854136 0)
(10.4986 0.0682137 0)
(10.5039 0.0499693 0)
(10.5092 0.03299 0)
(10.0172 -0.16747 0)
(10.0717 0.0447678 0)
(10.1097 0.125467 0)
(10.1404 0.145267 0)
(10.1823 0.138376 0)
(10.2293 0.115588 0)
(10.2754 0.0904101 0)
(10.3181 0.0754863 0)
(10.3559 0.0743748 0)
(10.3871 0.0829458 0)
(10.4109 0.0941769 0)
(10.4279 0.101753 0)
(10.4398 0.102074 0)
(10.449 0.0945616 0)
(10.457 0.0808 0)
(10.4649 0.0635502 0)
(10.472 0.0453921 0)
(10.4789 0.0289435 0)
(9.98794 -0.0413278 0)
(10.1067 0.0579154 0)
(10.1332 0.133632 0)
(10.1432 0.144771 0)
(10.1723 0.124898 0)
(10.2079 0.0956064 0)
(10.2431 0.0685026 0)
(10.2771 0.0534454 0)
(10.3091 0.0535236 0)
(10.3372 0.0646908 0)
(10.3602 0.0793134 0)
(10.3782 0.0900715 0)
(10.3924 0.0926103 0)
(10.4044 0.0862112 0)
(10.4155 0.0728067 0)
(10.4262 0.0557213 0)
(10.4359 0.0379686 0)
(10.4447 0.0224938 0)
(9.96818 -0.171172 0)
(10.0314 -0.0287967 0)
(10.0875 0.0760118 0)
(10.1441 0.102842 0)
(10.1859 0.0876269 0)
(10.2083 0.0615816 0)
(10.2273 0.0365868 0)
(10.2505 0.0228779 0)
(10.2759 0.0252777 0)
(10.2999 0.0402161 0)
(10.3203 0.0590306 0)
(10.3374 0.0731851 0)
(10.3521 0.0777511 0)
(10.3658 0.0721723 0)
(10.379 0.0590072 0)
(10.3918 0.0422541 0)
(10.4035 0.0253905 0)
(10.4138 0.011542 0)
(10.2375 -0.0685927 0)
(10.2014 -0.00746249 0)
(10.2379 0.0510434 0)
(10.2708 0.0855609 0)
(10.2832 0.0942651 0)
(10.2846 0.0758898 0)
(10.2879 0.0436539 0)
(10.297 0.0190253 0)
(10.3074 0.0142353 0)
(10.3163 0.026615 0)
(10.3241 0.0452435 0)
(10.332 0.0594492 0)
(10.3411 0.0634736 0)
(10.3515 0.0569725 0)
(10.3629 0.0431329 0)
(10.3746 0.0264734 0)
(10.3858 0.0106921 0)
(10.3957 -0.00114976 0)
(9.95044 -0.116663 0)
(9.94654 -0.0441132 0)
(9.99536 0.0179412 0)
(10.0719 0.0624964 0)
(10.1512 0.0747106 0)
(10.2021 0.0525583 0)
(10.2287 0.0188676 0)
(10.2414 -0.00158503 0)
(10.2483 0.000440532 0)
(10.2549 0.0180735 0)
(10.2642 0.038173 0)
(10.2767 0.0505451 0)
(10.2913 0.0511826 0)
(10.307 0.0413765 0)
(10.323 0.0252622 0)
(10.339 0.00765564 0)
(10.3544 -0.00797092 0)
(10.3691 -0.0187668 0)
(9.78258 0.0162561 0)
(9.84033 -0.0388753 0)
(9.87501 -0.0937281 0)
(9.94251 -0.10386 0)
(10.0261 -0.0670149 0)
(10.0928 -0.0269182 0)
(10.1345 -0.00709687 0)
(10.1584 -0.00297928 0)
(10.1739 -0.00132605 0)
(10.1871 0.00461848 0)
(10.2016 0.0126235 0)
(10.2183 0.0169704 0)
(10.2361 0.0137267 0)
(10.2539 0.00258815 0)
(10.271 -0.0138404 0)
(10.2878 -0.0314109 0)
(10.3039 -0.0469026 0)
(10.3206 -0.0570446 0)
(9.9822 0.00432792 0)
(10.0602 -0.0821642 0)
(10.0407 -0.110609 0)
(10.0043 -0.105936 0)
(9.99786 -0.101469 0)
(10.0236 -0.0943436 0)
(10.0671 -0.0818738 0)
(10.1081 -0.0656169 0)
(10.1388 -0.0477554 0)
(10.1612 -0.0309346 0)
(10.1793 -0.0184501 0)
(10.1958 -0.0133767 0)
(10.2111 -0.0171501 0)
(10.2243 -0.0289487 0)
(10.2348 -0.046321 0)
(10.2431 -0.0657325 0)
(10.2504 -0.0844077 0)
(10.2581 -0.0993033 0)
(9.86651 0.0642229 0)
(9.89926 -0.0655748 0)
(9.88106 -0.0750243 0)
(9.8965 -0.0776108 0)
(9.94082 -0.120725 0)
(9.99814 -0.157099 0)
(10.0562 -0.158266 0)
(10.1109 -0.131862 0)
(10.16 -0.0982659 0)
(10.2024 -0.0716182 0)
(10.2385 -0.0555104 0)
(10.2692 -0.0478212 0)
(10.294 -0.0460121 0)
(10.3123 -0.0488499 0)
(10.3241 -0.0561608 0)
(10.3302 -0.0676172 0)
(10.3321 -0.0825113 0)
(10.3309 -0.0992941 0)
(10.1111 -0.0809794 0)
(10.0755 -0.0895116 0)
(10.0493 -0.0840992 0)
(10.0322 -0.125042 0)
(10.0338 -0.180959 0)
(10.0479 -0.219426 0)
(10.0733 -0.225411 0)
(10.1116 -0.20553 0)
(10.1579 -0.175404 0)
(10.2054 -0.146566 0)
(10.2497 -0.123324 0)
(10.2888 -0.105661 0)
(10.3218 -0.0927214 0)
(10.3482 -0.0842557 0)
(10.3682 -0.0805967 0)
(10.3821 -0.0818942 0)
(10.3909 -0.0877421 0)
(10.3947 -0.0973219 0)
(9.92767 0.0335269 0)
(9.96801 -0.0380474 0)
(9.99373 -0.0608606 0)
(10.0262 -0.103163 0)
(10.0594 -0.171579 0)
(10.0822 -0.226326 0)
(10.1065 -0.248905 0)
(10.1415 -0.243582 0)
(10.1848 -0.222723 0)
(10.231 -0.197608 0)
(10.2759 -0.174191 0)
(10.3174 -0.153767 0)
(10.3538 -0.136155 0)
(10.3842 -0.12157 0)
(10.4085 -0.110751 0)
(10.4267 -0.104458 0)
(10.4397 -0.102898 0)
(10.4476 -0.106036 0)
(9.87584 -0.0703384 0)
(9.96891 -0.107123 0)
(10.0245 -0.126375 0)
(10.0825 -0.162789 0)
(10.135 -0.212729 0)
(10.1693 -0.25548 0)
(10.1925 -0.278067 0)
(10.2174 -0.280617 0)
(10.249 -0.269167 0)
(10.2866 -0.250426 0)
(10.3254 -0.228105 0)
(10.3623 -0.204251 0)
(10.3949 -0.180678 0)
(10.4222 -0.159218 0)
(10.4443 -0.141436 0)
(10.4619 -0.128498 0)
(10.4757 -0.120836 0)
(10.486 -0.118672 0)
(9.97085 -0.188741 0)
(10.0219 -0.11895 0)
(10.054 -0.146798 0)
(10.118 -0.209351 0)
(10.192 -0.252487 0)
(10.2561 -0.280565 0)
(10.3075 -0.29334 0)
(10.3463 -0.294826 0)
(10.3745 -0.288481 0)
(10.3962 -0.275624 0)
(10.4151 -0.256723 0)
(10.4335 -0.232534 0)
(10.4507 -0.206397 0)
(10.4663 -0.181765 0)
(10.4805 -0.161047 0)
(10.4937 -0.145622 0)
(10.506 -0.135799 0)
(10.5172 -0.131607 0)
(9.83735 -0.133261 0)
(9.89907 -0.151275 0)
(9.94998 -0.198474 0)
(10.0335 -0.262211 0)
(10.1477 -0.316341 0)
(10.2733 -0.344285 0)
(10.3852 -0.343123 0)
(10.4637 -0.326769 0)
(10.5038 -0.307439 0)
(10.5162 -0.287807 0)
(10.5172 -0.265685 0)
(10.5158 -0.240282 0)
(10.5153 -0.214229 0)
(10.517 -0.190504 0)
(10.5214 -0.171132 0)
(10.5287 -0.157084 0)
(10.5384 -0.148218 0)
(10.5491 -0.144232 0)
(10.2337 -0.0826891 0)
(10.1448 -0.137168 0)
(10.0965 -0.221459 0)
(10.1215 -0.320223 0)
(10.2109 -0.405581 0)
(10.3462 -0.43272 0)
(10.4834 -0.405998 0)
(10.5803 -0.362786 0)
(10.6264 -0.324781 0)
(10.6337 -0.293446 0)
(10.6216 -0.264349 0)
(10.6027 -0.236 0)
(10.5843 -0.210133 0)
(10.5705 -0.18886 0)
(10.5631 -0.173143 0)
(10.5621 -0.163006 0)
(10.5657 -0.157347 0)
(10.572 -0.155273 0)
(9.94429 -0.0384426 0)
(10.0528 -0.0915674 0)
(10.1054 -0.20799 0)
(10.1635 -0.344891 0)
(10.2681 -0.471215 0)
(10.4245 -0.508821 0)
(10.5797 -0.46385 0)
(10.681 -0.393797 0)
(10.7155 -0.33484 0)
(10.6992 -0.289459 0)
(10.6558 -0.251739 0)
(10.6029 -0.220062 0)
(10.55 -0.195125 0)
(10.5038 -0.177542 0)
(10.4644 -0.166396 0)
(10.4323 -0.16037 0)
(10.4019 -0.157131 0)
(10.3738 -0.155342 0)
(10.0119 -0.0668287 0)
(10.0748 -0.136767 0)
(10.1136 -0.234397 0)
(10.1743 -0.381295 0)
(10.2959 -0.562786 0)
(10.4533 -0.609906 0)
(10.5334 -0.534217 0)
(10.5016 -0.422547 0)
(10.3748 -0.327987 0)
(10.1981 -0.255369 0)
(10.0113 -0.200567 0)
(9.83721 -0.162602 0)
(9.68074 -0.138938 0)
(9.54206 -0.125853 0)
(9.41475 -0.118998 0)
(9.29748 -0.114817 0)
(9.18257 -0.110497 0)
(9.07629 -0.105242 0)
(9.9697 -0.065172 0)
(10.1002 -0.140221 0)
(10.044 -0.250001 0)
(10.1327 -0.393423 0)
(9.90843 -0.592176 0)
(9.51465 -0.609346 0)
(9.02627 -0.491793 0)
(8.53227 -0.351243 0)
(8.06099 -0.238229 0)
(7.66026 -0.152024 0)
(7.34614 -0.092461 0)
(7.1063 -0.0568203 0)
(6.92064 -0.0384576 0)
(6.77167 -0.0296511 0)
(6.64594 -0.0254482 0)
(6.53814 -0.0228551 0)
(6.44082 -0.020336 0)
(6.35984 -0.0180818 0)
(9.86411 -0.00583761 0)
(9.71341 -0.121441 0)
(8.89754 -0.163124 0)
(8.33274 -0.351772 0)
(6.25786 -0.435072 0)
(4.67211 -0.251314 0)
(3.72015 -0.0717657 0)
(3.15893 0.0263243 0)
(2.83627 0.0590448 0)
(2.6817 0.0638688 0)
(2.62307 0.0552292 0)
(2.6041 0.0429569 0)
(2.59986 0.0310148 0)
(2.59752 0.0210936 0)
(2.59094 0.0135514 0)
(2.58116 0.00848109 0)
(2.56741 0.00517219 0)
(2.55535 0.00302321 0)
(-0.00131701 0.00406666 1.04227e-19)
(-0.0043728 0.00445028 -1.03488e-19)
(-0.0037915 0.000779117 0)
(0.00412619 -0.00519442 0)
(0.0187825 -0.0111157 0)
(0.0380064 -0.0155336 1.00437e-19)
(0.0595441 -0.0181617 0)
(0.0817116 -0.0192287 0)
(0.103441 -0.0191299 0)
(0.123973 -0.0182295 0)
(0.142837 -0.0168073 -9.66415e-20)
(0.159788 -0.0150647 0)
(0.174724 -0.0131596 0)
(0.187636 -0.0112124 0)
(0.198577 -0.00930681 0)
(0.207659 -0.00750831 -9.29052e-20)
(0.215021 -0.00586223 0)
(0.220828 -0.00440232 0)
(0.225263 -0.00315092 0)
(0.228512 -0.00212619 0)
(0.230785 -0.00133982 0)
(0.232291 -0.000790241 0)
(0.233234 -0.000473392 0)
(0.233816 -0.000393799 -8.70453e-20)
(0.234236 -0.000546462 8.6322e-20)
(0.234684 -0.000911556 -8.56007e-20)
(0.235326 -0.00145553 -8.48812e-20)
(0.236295 -0.00213214 0)
(0.237687 -0.00289277 0)
(0.239555 -0.00369054 8.27348e-20)
(0.241921 -0.00447962 8.20234e-20)
(0.24477 -0.00521719 0)
(0.248058 -0.00586482 0)
(0.251719 -0.00639687 7.99023e-20)
(0.255665 -0.00680136 0)
(0.259797 -0.007071 0)
(0.264026 -0.00721701 -7.78032e-20)
(0.268259 -0.00726647 0)
(0.272414 -0.00725149 -7.64172e-20)
(0.27642 -0.00720111 -1.51457e-19)
(0.280217 -0.00713617 0)
(0.283751 -0.00706952 0)
(0.286975 -0.00699859 0)
(0.289834 -0.00694588 0)
(0.292291 -0.00699772 0)
(0.294276 -0.00731696 -1.43315e-19)
(0.295744 -0.0082969 -1.4198e-19)
(0.29642 -0.0102263 -1.40653e-19)
(0.295901 -0.0140204 0)
(0.293962 -0.020261 1.38021e-19)
(0.289963 -0.0277674 0)
(0.282639 -0.0342178 -1.35417e-19)
(0.26957 -0.0364129 -1.34125e-19)
(0.247547 -0.0308616 0)
(0.213376 -0.0157815 0)
(0.163348 0.0086104 0)
(0.095499 0.0369086 -1.29048e-19)
(0.0143351 0.0546253 0)
(-0.0695624 0.0533522 0)
(-0.147861 0.0470274 0)
(-0.222049 0.0422174 0)
(-0.292117 0.0381925 0)
(-0.358273 0.0346927 0)
(-0.420632 0.0316122 0)
(-0.479413 0.0288945 0)
(-0.534821 0.026507 1.17682e-19)
(-0.587035 0.0244001 0)
(-0.636234 0.0225258 0)
(-0.6826 0.0208469 -1.14054e-19)
(-0.726296 0.0193332 -1.12866e-19)
(-0.76748 0.0179606 0)
(-0.806298 0.0167084 1.1052e-19)
(-0.842894 0.0155577 -1.09361e-19)
(-0.877403 0.0144935 0)
(-0.909932 0.0135089 1.07075e-19)
(-0.940612 0.0126083 0)
(-0.969569 0.0117916 0)
(-0.996924 0.0110552 -1.03715e-19)
(-1.0228 0.0103962 0)
(-1.04731 0.00981066 1.01521e-19)
(-1.07058 0.00929479 0)
(-1.09271 0.00884418 -9.93615e-20)
(-1.1138 0.00845416 -9.82943e-20)
(-1.13394 0.00811959 -9.72352e-20)
(-1.15322 0.00783501 -1.92368e-19)
(-1.17172 0.00759478 1.90282e-19)
(-1.1895 0.00739267 0)
(-1.20661 0.00722094 0)
(-1.22309 0.00707194 0)
(-1.23897 0.00693918 1.82094e-19)
(-1.25426 0.00681656 1.80085e-19)
(-1.26898 0.00669876 -1.78091e-19)
(-1.28311 0.00658143 0)
(-1.29666 0.00646114 1.74148e-19)
(-1.30959 0.00633539 1.72199e-19)
(-1.32189 0.00620256 1.70265e-19)
(-1.33354 0.00606194 0)
(-1.34452 0.00591361 0)
(-1.35479 0.00575815 0)
(-1.36434 0.00559628 1.62677e-19)
(-1.37316 0.00543014 0)
(-1.38124 0.00526506 0)
(-1.38857 0.00510636 -1.57138e-19)
(-1.39516 0.00495533 0)
(-1.40103 0.00481165 0)
(-1.40618 0.00467609 -1.51727e-19)
(-1.41065 0.0045525 0)
(-1.41445 0.00444202 0)
(-1.41761 0.00434185 1.46438e-19)
(-1.42016 0.0042453 1.44701e-19)
(-1.4221 0.00414734 0)
(-1.42344 0.00405142 -1.41265e-19)
(-1.42419 0.00397714 0)
(-1.42436 0.00393388 1.37879e-19)
(-1.42397 0.00389874 0)
(-1.42299 0.00384969 1.34542e-19)
(-1.42138 0.00378358 1.32891e-19)
(-1.41908 0.00369126 0)
(-1.41602 0.00356607 0)
(-1.41211 0.00340181 0)
(-1.40726 0.00319298 0)
(-1.40137 0.00293528 0)
(-1.39432 0.00262608 0)
(-1.38602 0.00226488 0)
(-1.37635 0.0018535 1.2011e-19)
(-1.36524 0.00139629 -1.18566e-19)
(-1.3526 0.000901857 0)
(-1.33837 0.000380964 0)
(-1.32251 -0.00015671 0)
(-1.30502 -0.000700853 0)
(-1.2859 -0.00123988 -2.22033e-19)
(-1.26522 -0.00176363 0)
(-1.24303 -0.00226382 2.16146e-19)
(-1.21944 -0.00272979 -2.13233e-19)
(-1.19457 -0.00315189 0)
(-1.16858 -0.00352316 0)
(-1.14162 -0.00383912 0)
(-1.11387 -0.00409759 2.01762e-19)
(-1.0855 -0.00429827 1.98935e-19)
(-1.05668 -0.00444356 0)
(-1.02756 -0.00453859 1.93326e-19)
(-0.998294 -0.00459034 1.90542e-19)
(-0.968986 -0.00460739 -1.87771e-19)
(-0.939727 -0.00459919 0)
(-0.910573 -0.0045756 0)
(-0.881551 -0.00454643 -1.79535e-19)
(-0.852656 -0.004521 0)
(-0.823856 -0.00450779 0)
(-0.795092 -0.00451425 0)
(-0.766283 -0.0045466 0)
(-0.737331 -0.00460955 1.66062e-19)
(-0.708123 -0.0047061 1.63407e-19)
(-0.678538 -0.00483726 0)
(-0.648455 -0.00500236 1.58138e-19)
(-0.617759 -0.0051989 0)
(-0.586343 -0.00542273 0)
(-0.554115 -0.0056683 1.50342e-19)
(-0.521008 -0.00592864 0)
(-0.486977 -0.00619561 1.45217e-19)
(-0.452008 -0.00646043 0)
(-0.416117 -0.00671477 0)
(-0.379353 -0.00694905 1.37635e-19)
(-0.341795 -0.00715582 0)
(-0.30354 -0.00733438 1.32648e-19)
(-0.264706 -0.0074751 0)
(-0.225436 -0.00756973 0)
(-0.185866 -0.00762801 0)
(-0.146118 -0.00765769 -1.2282e-19)
(-0.106317 -0.00764795 0)
(-0.0665875 -0.00760383 1.17973e-19)
(-0.0269947 -0.0075104 0)
(0.0122866 -0.00731543 0)
(0.0509617 -0.00697411 0)
(0.0887158 -0.00658988 0)
(0.125661 -0.00618162 0)
(0.160672 -0.00572122 0)
(0.196865 -0.00479881 0)
(0.22072 -0.00468675 -1.9809e-19)
(0.26613 -0.000855903 0)
(0.244935 0.00269404 0)
(-0.000891985 0.00775889 -3.12755e-19)
(0.00112365 0.00104405 3.10535e-19)
(0.0130437 -0.0187199 0)
(0.0335743 -0.0414928 -2.03956e-19)
(0.0583265 -0.0588717 0)
(0.0835308 -0.0684649 -1.00392e-19)
(0.10722 -0.0715383 1.99271e-19)
(0.128652 -0.0701432 1.97708e-19)
(0.147666 -0.0660233 0)
(0.164344 -0.0603944 1.94605e-19)
(0.178856 -0.054041 9.65121e-20)
(0.191392 -0.0474589 0)
(0.202137 -0.0409601 0)
(0.211242 -0.034746 0)
(0.218865 -0.0289459 0)
(0.225136 -0.0236441 9.27671e-20)
(0.230186 -0.0188826 0)
(0.234133 -0.0146857 -1.82636e-19)
(0.237093 -0.0110661 0)
(0.239179 -0.00802587 0)
(0.240502 -0.0055573 1.78262e-19)
(0.241169 -0.00364423 0)
(0.241279 -0.00226721 -1.75362e-19)
(0.240914 -0.00139652 8.69416e-20)
(0.240151 -0.000988075 -8.62204e-20)
(0.23905 -0.000983725 8.55001e-20)
(0.237652 -0.00130641 8.47805e-20)
(0.23598 -0.00186704 0)
(0.234037 -0.00257373 0)
(0.231813 -0.00334535 -8.26272e-20)
(0.229281 -0.00411716 8.19375e-20)
(0.226408 -0.00483796 0)
(0.223157 -0.00546617 0)
(0.219485 -0.00596338 -7.97799e-20)
(0.215338 -0.0062947 0)
(0.210625 -0.00642934 0)
(0.205219 -0.00635527 7.76748e-20)
(0.198969 -0.00608335 0)
(0.191687 -0.005633 -7.63077e-20)
(0.183138 -0.00501957 1.51204e-19)
(0.173026 -0.00424945 0)
(0.160993 -0.00332746 0)
(0.146582 -0.00227932 2.94277e-19)
(0.129184 -0.00113508 2.91584e-19)
(0.108052 0.000149002 2.88905e-19)
(0.0822788 0.00184729 -1.43137e-19)
(0.0509205 0.00477982 1.41791e-19)
(0.0124238 0.0101991 4.21465e-19)
(-0.0343133 0.0183592 -2.78361e-19)
(-0.090763 0.0295004 -1.37855e-19)
(-0.158382 0.0446125 0)
(-0.236543 0.0641985 1.35224e-19)
(-0.322799 0.0869951 -1.33925e-19)
(-0.413686 0.110425 0)
(-0.504142 0.132135 0)
(-0.58956 0.149764 0)
(-0.668228 0.160867 1.28628e-19)
(-0.743451 0.164095 0)
(-0.818517 0.160673 -2.52038e-19)
(-0.892841 0.154446 0)
(-0.965985 0.147002 -2.46874e-19)
(-1.03702 0.139028 0)
(-1.10543 0.130981 2.41791e-19)
(-1.17094 0.12309 0)
(-1.23342 0.115483 -2.36792e-19)
(-1.29285 0.108227 1.17164e-19)
(-1.34926 0.101355 0)
(-1.40272 0.0948709 2.29454e-19)
(-1.4533 0.0887717 1.13524e-19)
(-1.50108 0.0830438 1.12333e-19)
(-1.54619 0.0776705 0)
(-1.58871 0.0726337 1.09986e-19)
(-1.62878 0.0679205 1.08823e-19)
(-1.66649 0.0635311 0)
(-1.702 0.0594487 -1.06534e-19)
(-1.73541 0.0556476 2.10811e-19)
(-1.76684 0.0521227 0)
(-1.7964 0.0488641 1.03173e-19)
(-1.82421 0.0458601 0)
(-1.85036 0.0430983 -3.02944e-19)
(-1.87497 0.0405647 0)
(-1.89814 0.0382434 2.96472e-19)
(-1.91994 0.0361171 9.77572e-20)
(-1.94047 0.034167 -9.67035e-20)
(-1.9598 0.032373 -1.91309e-19)
(-1.978 0.0307129 1.89227e-19)
(-1.99511 0.0291645 0)
(-2.01116 0.0277089 0)
(-2.0262 0.0263261 0)
(-2.04024 0.024996 -5.43164e-19)
(-2.05328 0.0237007 -1.7905e-19)
(-2.06532 0.0224246 1.77062e-19)
(-2.07635 0.0211549 0)
(-2.08635 0.0198818 1.73135e-19)
(-2.09531 0.0185985 -1.71191e-19)
(-2.10318 0.0173011 -1.69264e-19)
(-2.10996 0.0159883 0)
(-2.1156 0.0146611 0)
(-2.12009 0.0133229 0)
(-2.1234 0.0119795 -1.61705e-19)
(-2.12553 0.0106406 0)
(-2.12644 0.00931702 3.16026e-19)
(-2.12616 0.00801639 4.68569e-19)
(-2.12467 0.00674254 -3.08759e-19)
(-2.12199 0.00551149 0)
(-2.11814 0.00433414 -1.50799e-19)
(-2.11315 0.00321028 0)
(-2.10706 0.00213712 -2.94556e-19)
(-2.09989 0.00111409 1.45534e-19)
(-2.09167 0.00013786 1.43805e-19)
(-2.08244 -0.0007993 0)
(-2.07222 -0.00170855 4.21166e-19)
(-2.06101 -0.00259987 -2.77395e-19)
(-2.04879 -0.00348351 -1.37022e-19)
(-2.03552 -0.00437462 0)
(-2.02117 -0.00529288 -1.33701e-19)
(-2.00571 -0.00625505 -3.96169e-19)
(-1.98908 -0.00727671 0)
(-1.97122 -0.00837057 -2.5761e-19)
(-1.95207 -0.00954717 -2.54395e-19)
(-1.93153 -0.0108135 -2.51204e-19)
(-1.90955 -0.0121729 0)
(-1.88602 -0.0136235 0)
(-1.86089 -0.0151586 0)
(-1.83408 -0.0167663 1.19332e-19)
(-1.80553 -0.0184297 1.17809e-19)
(-1.77522 -0.0201273 0)
(-1.74311 -0.0218323 2.29529e-19)
(-1.70923 -0.0235162 2.26527e-19)
(-1.6736 -0.02515 0)
(-1.63629 -0.0267026 2.20606e-19)
(-1.59738 -0.0281474 4.35309e-19)
(-1.55698 -0.02946 -2.14756e-19)
(-1.51523 -0.0306141 -2.1183e-19)
(-1.47229 -0.0315898 0)
(-1.42835 -0.0323749 0)
(-1.38357 -0.0329633 0)
(-1.33817 -0.0333558 -2.00467e-19)
(-1.29233 -0.03356 1.97632e-19)
(-1.24622 -0.0335904 3.89708e-19)
(-1.20001 -0.0334684 -1.92089e-19)
(-1.15384 -0.0332202 1.89299e-19)
(-1.10783 -0.0328756 1.86573e-19)
(-1.06206 -0.032466 0)
(-1.01657 -0.032023 0)
(-0.971393 -0.0315768 -1.78371e-19)
(-0.926512 -0.0311554 0)
(-0.881889 -0.030783 0)
(-0.837457 -0.0304804 3.40628e-19)
(-0.793131 -0.030264 0)
(-0.748808 -0.0301455 1.64988e-19)
(-0.704372 -0.0301309 -1.62373e-19)
(-0.659703 -0.0302205 0)
(-0.614681 -0.0304094 1.57115e-19)
(-0.569193 -0.0306878 0)
(-0.523136 -0.0310412 0)
(-0.476426 -0.0314511 -1.49394e-19)
(-0.429003 -0.0318957 2.93659e-19)
(-0.380829 -0.0323502 -1.44303e-19)
(-0.331904 -0.0327884 0)
(-0.28225 -0.0331877 0)
(-0.231927 -0.0335186 1.3675e-19)
(-0.181028 -0.0337609 0)
(-0.129654 -0.0339172 1.31798e-19)
(-0.077932 -0.0339482 0)
(-0.0260109 -0.0338708 0)
(0.0259714 -0.0336877 0)
(0.0778914 -0.0334061 1.22048e-19)
(0.129635 -0.0330323 0)
(0.181096 -0.0325744 -1.17215e-19)
(0.232191 -0.0320438 0)
(0.282822 -0.0314314 0)
(0.332937 -0.0306726 2.20098e-19)
(0.382514 -0.0297872 -2.15384e-19)
(0.431603 -0.0287592 0)
(0.479423 -0.0275971 0)
(0.527658 -0.02549 0)
(0.568509 -0.0238963 5.90581e-19)
(0.620843 -0.0171667 0)
(0.632444 -0.00560552 -3.75829e-19)
(-0.00108259 0.00377938 -9.44868e-23)
(0.00912664 -0.0246077 -4.14151e-19)
(0.0337198 -0.0666616 0)
(0.0613716 -0.0993358 4.07888e-19)
(0.0863635 -0.114692 0)
(0.106474 -0.116394 0)
(0.122253 -0.110516 8.66426e-23)
(0.134829 -0.101307 -1.97384e-19)
(0.145066 -0.0909973 -1.95828e-19)
(0.153539 -0.0805913 -1.94124e-19)
(0.16062 -0.0705157 0)
(0.166551 -0.060955 0)
(0.171492 -0.0519917 1.89486e-19)
(0.175546 -0.0436696 3.75928e-19)
(0.178786 -0.0360297 -3.72925e-19)
(0.181257 -0.0290852 0)
(0.182997 -0.0228324 -3.67011e-19)
(0.184044 -0.017285 1.81979e-19)
(0.18443 -0.0124489 0)
(0.184186 -0.00831568 -3.58297e-19)
(0.18334 -0.00486608 -1.77646e-19)
(0.181916 -0.00207252 3.52533e-19)
(0.179946 0.000100081 1.74771e-19)
(0.177457 0.0017022 0)
(0.174446 0.00280181 -3.43901e-19)
(0.170896 0.003486 -3.41023e-19)
(0.166781 0.00385995 0)
(0.162057 0.00404064 -3.35266e-19)
(0.156663 0.00414406 0)
(0.150525 0.0042694 -3.29526e-19)
(0.143548 0.00449481 -1.63293e-19)
(0.135621 0.00488376 0)
(0.126611 0.00549789 0)
(0.116354 0.00640182 0)
(0.104652 0.00766728 0)
(0.0912508 0.0093693 0)
(0.075836 0.011581 0)
(0.0580245 0.0143726 -3.07149e-19)
(0.0373531 0.0178439 4.56624e-19)
(0.0132821 0.0221374 0)
(-0.014819 0.0274437 0)
(-0.0476693 0.0340088 0)
(-0.0860365 0.0421119 5.29693e-23)
(-0.130714 0.0520668 -2.90862e-19)
(-0.182438 0.0642593 -5.76396e-19)
(-0.241665 0.0790283 5.71031e-19)
(-0.30854 0.0964264 2.8286e-19)
(-0.382289 0.116244 -2.80142e-19)
(-0.461601 0.137264 -3.99464e-23)
(-0.544572 0.157743 -2.74834e-19)
(-0.628371 0.176926 0)
(-0.711281 0.194315 -2.6946e-19)
(-0.791929 0.209641 -3.00433e-23)
(-0.869019 0.223264 0)
(-0.941428 0.235357 0)
(-1.00852 0.245184 2.58708e-19)
(-1.07052 0.251122 0)
(-1.12871 0.25159 0)
(-1.18495 0.246747 -2.50733e-19)
(-1.24022 0.238538 -4.96191e-19)
(-1.2947 0.228437 2.4548e-19)
(-1.34818 0.217377 0)
(-1.40039 0.205958 -2.40328e-19)
(-1.45109 0.194542 0)
(-1.50008 0.183344 -2.35273e-19)
(-1.54721 0.172488 -2.32765e-19)
(-1.59239 0.162052 4.60589e-19)
(-1.63555 0.152075 2.27847e-19)
(-1.67668 0.142572 0)
(-1.71577 0.133552 -4.46017e-19)
(-1.75283 0.125012 0)
(-1.78789 0.116946 -6.54797e-19)
(-1.821 0.109344 -4.31862e-19)
(-1.85222 0.102195 -4.27235e-19)
(-1.8816 0.0954905 4.2265e-19)
(-1.9092 0.0892177 -6.27157e-19)
(-1.93511 0.0833655 0)
(-1.9594 0.0779213 0)
(-1.98215 0.0728701 4.04728e-19)
(-2.00345 0.0681944 6.00514e-19)
(-2.02338 0.0638733 0)
(-2.04201 0.0598828 -1.95843e-19)
(-2.05941 0.0561956 0)
(-2.07565 0.0527815 5.74788e-19)
(-2.09079 0.0496084 -1.12857e-23)
(-2.10487 0.0466425 1.08697e-23)
(-2.11793 0.0438499 -3.70703e-19)
(-2.12999 0.0411978 0)
(-2.14108 0.0386537 3.62541e-19)
(-2.15119 0.0361872 -8.02668e-24)
(-2.16033 0.0337705 0)
(-2.16848 0.0313792 0)
(-2.17561 0.0289936 0)
(-2.18172 0.0265991 -3.42699e-19)
(-2.18675 0.0241858 0)
(-2.19069 0.0217492 0)
(-2.1935 0.0192893 0)
(-2.19516 0.0168103 0)
(-2.19562 0.0143204 0)
(-2.19488 0.011832 -3.19936e-19)
(-2.19291 0.00936021 0)
(-2.1897 0.00690829 -3.12597e-19)
(-2.18525 0.00449141 -3.08969e-19)
(-2.17959 0.00213339 3.05372e-19)
(-2.17272 -0.000147106 0)
(-2.16466 -0.00233658 2.98263e-19)
(-2.15542 -0.00443081 0)
(-2.14504 -0.00642948 2.91266e-19)
(-2.13354 -0.00833485 -2.87809e-19)
(-2.12095 -0.0101544 -8.53118e-19)
(-2.1073 -0.0119013 0)
(-2.0926 -0.0135942 -8.32764e-19)
(-2.07686 -0.0152548 -2.74223e-19)
(-2.06008 -0.0169044 0)
(-2.04224 -0.0185667 -5.35193e-19)
(-2.02331 -0.0202673 -5.28631e-19)
(-2.00325 -0.022031 7.83185e-19)
(-1.98202 -0.0238801 0)
(-1.95955 -0.0258335 2.54627e-19)
(-1.93579 -0.0279059 2.51443e-19)
(-1.91065 -0.0301061 7.44816e-19)
(-1.88407 -0.0324369 0)
(-1.85596 -0.0348929 0)
(-1.82627 -0.0374609 0)
(-1.79493 -0.0401193 2.35843e-19)
(-1.76189 -0.0428394 0)
(-1.72711 -0.0455864 0)
(-1.69059 -0.0483198 -2.26838e-19)
(-1.65233 -0.0509958 -2.23872e-19)
(-1.61237 -0.0535681 0)
(-1.57078 -0.0559884 0)
(-1.52764 -0.0582117 -4.30226e-19)
(-1.48306 -0.0601987 0)
(-1.43721 -0.0619104 4.18764e-19)
(-1.39022 -0.0633164 4.1305e-19)
(-1.34229 -0.0643988 0)
(-1.29361 -0.0651504 0)
(-1.24437 -0.065575 -3.96259e-19)
(-1.19476 -0.0656878 -3.81904e-23)
(-1.14497 -0.0655152 -3.67525e-23)
(-1.09515 -0.0650941 0)
(-1.04544 -0.0644692 -7.48641e-19)
(-0.995962 -0.0636904 0)
(-0.946794 -0.06281 0)
(-0.897984 -0.0618804 0)
(-0.849551 -0.0609515 3.52784e-19)
(-0.80148 -0.0600689 0)
(-0.753729 -0.0592722 -6.84237e-19)
(-0.706232 -0.0585946 -3.36867e-19)
(-0.658902 -0.0580627 0)
(-0.611634 -0.0576949 -3.26378e-19)
(-0.564313 -0.0575007 0)
(-0.516815 -0.0574798 0)
(-0.46902 -0.0576238 -9.32464e-19)
(-0.420813 -0.057916 6.11375e-19)
(-0.37209 -0.0583324 0)
(-0.322765 -0.0588423 5.91053e-19)
(-0.272774 -0.0594099 -2.90522e-19)
(-0.222077 -0.0599942 0)
(-0.17067 -0.060552 0)
(-0.118574 -0.0610462 0)
(-0.0658454 -0.0614297 -8.11913e-19)
(-0.0125823 -0.0616747 0)
(0.0411255 -0.0617551 -2.60874e-19)
(0.0951504 -0.0616566 0)
(0.149337 -0.0613769 0)
(0.203559 -0.0609266 0)
(0.257693 -0.060322 0)
(0.311636 -0.0595802 0)
(0.365309 -0.0587172 0)
(0.41866 -0.0577463 -4.54434e-19)
(0.471678 -0.0566721 0)
(0.524401 -0.0554811 -2.17852e-19)
(0.57682 -0.0541745 6.39548e-19)
(0.628959 -0.0526814 0)
(0.680276 -0.0509039 0)
(0.731828 -0.0481639 -3.98807e-19)
(0.778899 -0.0450139 -3.89847e-19)
(0.832743 -0.037332 3.80876e-19)
(0.863065 -0.0225602 3.72287e-19)
(-0.000860067 -0.00910268 6.26104e-19)
(0.0191673 -0.0732378 6.21565e-19)
(0.0492529 -0.129048 4.11303e-19)
(0.0728542 -0.152608 2.04164e-19)
(0.0887638 -0.152595 0)
(0.0993561 -0.142539 -4.01312e-19)
(0.107108 -0.129532 1.99046e-19)
(0.113237 -0.11612 0)
(0.118277 -0.103086 1.95367e-19)
(0.122469 -0.0906554 0)
(0.125924 -0.0788989 -3.84326e-19)
(0.128697 -0.0678423 0)
(0.130818 -0.0574964 -1.88877e-19)
(0.132306 -0.0478691 -3.74675e-19)
(0.133173 -0.0389735 3.7165e-19)
(0.133427 -0.0308124 0)
(0.133072 -0.023382 3.65718e-19)
(0.13211 -0.016691 0)
(0.130541 -0.0107436 0)
(0.128363 -0.00552862 3.57031e-19)
(0.125562 -0.00102547 0)
(0.122115 0.00280461 1.64754e-22)
(0.117995 0.00601475 0)
(0.113166 0.008673 0)
(0.10758 0.0108682 -1.48058e-22)
(0.101167 0.0127125 3.39893e-19)
(0.0938389 0.0143352 3.37185e-19)
(0.0854884 0.0158772 3.34209e-19)
(0.0759848 0.0174786 0)
(0.0651717 0.0192689 6.57246e-19)
(0.0528601 0.0213645 0)
(0.0388217 0.0238706 3.23086e-19)
(0.0227887 0.0269029 0)
(0.00445299 0.0306119 0)
(-0.0165494 0.035174 -3.14771e-19)
(-0.0406406 0.0407869 0)
(-0.0682952 0.0476611 3.0927e-19)
(-0.100043 0.0559877 -8.92287e-23)
(-0.136423 0.0659515 -6.07547e-19)
(-0.177946 0.0777373 6.022e-19)
(-0.225039 0.0914848 0)
(-0.277959 0.107329 0)
(-0.336647 0.125385 2.93032e-19)
(-0.400775 0.145579 0)
(-0.469663 0.167342 2.87463e-19)
(-0.542193 0.189653 -2.84748e-19)
(-0.616767 0.211603 -2.82023e-19)
(-0.691384 0.232548 0)
(-0.76473 0.251849 2.76533e-19)